
     Program PWSCF v.7.5 starts on  7May2026 at 15:32:12 

     This program is part of the open-source Quantum ESPRESSO suite
     for quantum simulation of materials; please cite
         "P. Giannozzi et al., J. Phys.:Condens. Matter 21 395502 (2009);
         "P. Giannozzi et al., J. Phys.:Condens. Matter 29 465901 (2017);
         "P. Giannozzi et al., J. Chem. Phys. 152 154105 (2020);
          URL http://www.quantum-espresso.org", 
     in publications or presentations arising from this work. More details at
     http://www.quantum-espresso.org/quote

     Parallel version (MPI), running on     8 processors

     MPI processes distributed on     1 nodes
     0 MiB available memory on the printing compute node when the environment starts

     Reading input from graphite.vc-relax.in

     Current dimensions of program PWSCF are:
     Max number of different atomic species (ntypx) = 10
     Max number of k-points (npk) =  40000
     Max angular momentum in pseudopotentials (lmaxx) =  4
     file C.pbe-n-kjpaw_psl.1.0.0.UPF: wavefunction(s)  2S 2P renormalized
     Message from routine setup:
     using ibrav=0 with symmetry is DISCOURAGED, use correct ibrav instead

     R & G space division:  proc/nbgrp/npool/nimage =       8
     Subspace diagonalization in iterative solution of the eigenvalue problem:
     a serial algorithm will be used


     Parallelization info
     --------------------
     sticks:   dense  smooth     PW     G-vecs:    dense   smooth      PW
     Min          68      32     10                 4006     1402     258
     Max          69      34     11                 4013     1411     269
     Sum         547     265     85                32075    11271    2123

     Using Slab Decomposition



     bravais-lattice index     =            0
     lattice parameter (alat)  =       4.6625  a.u.
     unit-cell volume          =     277.6091 (a.u.)^3
     number of atoms/cell      =            4
     number of atomic types    =            1
     number of electrons       =        16.00
     number of Kohn-Sham states=           12
     kinetic-energy cutoff     =      45.0000  Ry
     charge density cutoff     =     360.0000  Ry
     scf convergence threshold =      1.0E-07
     mixing beta               =       0.2000
     number of iterations used =            8  plain     mixing
     energy convergence thresh.=      1.0E-04
     force convergence thresh. =      1.0E-05
     press convergence thresh. =      1.0E-01
     Exchange-correlation= SLA  PW   PBX  PBC
                           (   1   4   3   4   0   0   0)
     nstep                     =          500


     celldm(1)=   4.662505  celldm(2)=   0.000000  celldm(3)=   0.000000
     celldm(4)=   0.000000  celldm(5)=   0.000000  celldm(6)=   0.000000

     crystal axes: (cart. coord. in units of alat)
               a(1) = (   1.000000   0.000000   0.000000 )  
               a(2) = (  -0.500000   0.866025   0.000000 )  
               a(3) = (   0.000000   0.000000   3.162607 )  

     reciprocal axes: (cart. coord. in units 2 pi/alat)
               b(1) = (  1.000000  0.577350 -0.000000 )  
               b(2) = (  0.000000  1.154701  0.000000 )  
               b(3) = (  0.000000 -0.000000  0.316195 )  


     PseudoPot. # 1 for C  read from file:
     ./pseudo/C.pbe-n-kjpaw_psl.1.0.0.UPF
     MD5 check sum: 5d2aebdfa2cae82b50a7e79e9516da0f
     Pseudo is Projector augmented-wave + core cor, Zval =  4.0
     Generated using "atomic" code by A. Dal Corso  v.5.1
     Shape of augmentation charge: PSQ
     Using radial grid of 1073 points,  4 beta functions with: 
                l(1) =   0
                l(2) =   0
                l(3) =   1
                l(4) =   1
     Q(r) pseudized with 0 coefficients 


     atomic species   valence    mass     pseudopotential
     C                 4.00    12.01070     C ( 1.00)

     24 Sym. Ops., with inversion, found (12 have fractional translation)


                                    s                        frac. trans.

      isym =  1     identity                                     

 cryst.   s( 1) = (     1          0          0      )
                  (     0          1          0      )
                  (     0          0          1      )

 cart.    s( 1) = (  1.0000000  0.0000000  0.0000000 )
                  (  0.0000000  1.0000000  0.0000000 )
                  (  0.0000000  0.0000000  1.0000000 )


      isym =  2     180 deg rotation - cart. axis [0,0,1]        

 cryst.   s( 2) = (    -1          0          0      )    f =(  0.0000000 )
                  (     0         -1          0      )       (  0.0000000 )
                  (     0          0          1      )       ( -0.5000000 )

 cart.    s( 2) = ( -1.0000000  0.0000000  0.0000000 )    f =(  0.0000000 )
                  (  0.0000000 -1.0000000  0.0000000 )       (  0.0000000 )
                  (  0.0000000  0.0000000  1.0000000 )       ( -1.5813036 )


      isym =  3     180 deg rotation - cart. axis [0,1,0]        

 cryst.   s( 3) = (    -1          0          0      )    f =(  0.0000000 )
                  (     1          1          0      )       (  0.0000000 )
                  (     0          0         -1      )       (  0.5000000 )

 cart.    s( 3) = ( -1.0000000  0.0000000  0.0000000 )    f =(  0.0000000 )
                  (  0.0000000  1.0000000  0.0000000 )       (  0.0000000 )
                  (  0.0000000  0.0000000 -1.0000000 )       (  1.5813036 )


      isym =  4     180 deg rotation - cart. axis [1,0,0]        

 cryst.   s( 4) = (     1          0          0      )
                  (    -1         -1          0      )
                  (     0          0         -1      )

 cart.    s( 4) = (  1.0000000  0.0000000  0.0000000 )
                  (  0.0000000 -1.0000000  0.0000000 )
                  (  0.0000000  0.0000000 -1.0000000 )


      isym =  5      60 deg rotation - cryst. axis [0,0,1]       

 cryst.   s( 5) = (     1          1          0      )    f =(  0.0000000 )
                  (    -1          0          0      )       (  0.0000000 )
                  (     0          0          1      )       ( -0.5000000 )

 cart.    s( 5) = (  0.5000000 -0.8660254  0.0000000 )    f =(  0.0000000 )
                  (  0.8660254  0.5000000  0.0000000 )       (  0.0000000 )
                  (  0.0000000  0.0000000  1.0000000 )       ( -1.5813036 )


      isym =  6      60 deg rotation - cryst. axis [0,0,-1]      

 cryst.   s( 6) = (     0         -1          0      )    f =(  0.0000000 )
                  (     1          1          0      )       (  0.0000000 )
                  (     0          0          1      )       ( -0.5000000 )

 cart.    s( 6) = (  0.5000000  0.8660254  0.0000000 )    f =(  0.0000000 )
                  ( -0.8660254  0.5000000  0.0000000 )       (  0.0000000 )
                  (  0.0000000  0.0000000  1.0000000 )       ( -1.5813036 )


      isym =  7     120 deg rotation - cryst. axis [0,0,1]       

 cryst.   s( 7) = (     0          1          0      )
                  (    -1         -1          0      )
                  (     0          0          1      )

 cart.    s( 7) = ( -0.5000000 -0.8660254  0.0000000 )
                  (  0.8660254 -0.5000000  0.0000000 )
                  (  0.0000000  0.0000000  1.0000000 )


      isym =  8     120 deg rotation - cryst. axis [0,0,-1]      

 cryst.   s( 8) = (    -1         -1          0      )
                  (     1          0          0      )
                  (     0          0          1      )

 cart.    s( 8) = ( -0.5000000  0.8660254  0.0000000 )
                  ( -0.8660254 -0.5000000  0.0000000 )
                  (  0.0000000  0.0000000  1.0000000 )


      isym =  9     180 deg rotation - cryst. axis [1,-1,0]      

 cryst.   s( 9) = (     0         -1          0      )    f =(  0.0000000 )
                  (    -1          0          0      )       (  0.0000000 )
                  (     0          0         -1      )       (  0.5000000 )

 cart.    s( 9) = (  0.5000000 -0.8660254  0.0000000 )    f =(  0.0000000 )
                  ( -0.8660254 -0.5000000  0.0000000 )       (  0.0000000 )
                  (  0.0000000  0.0000000 -1.0000000 )       (  1.5813036 )


      isym = 10     180 deg rotation - cryst. axis [2,1,0]       

 cryst.   s(10) = (     1          1          0      )    f =(  0.0000000 )
                  (     0         -1          0      )       (  0.0000000 )
                  (     0          0         -1      )       (  0.5000000 )

 cart.    s(10) = (  0.5000000  0.8660254  0.0000000 )    f =(  0.0000000 )
                  (  0.8660254 -0.5000000  0.0000000 )       (  0.0000000 )
                  (  0.0000000  0.0000000 -1.0000000 )       (  1.5813036 )


      isym = 11     180 deg rotation - cryst. axis [0,1,0]       

 cryst.   s(11) = (    -1         -1          0      )
                  (     0          1          0      )
                  (     0          0         -1      )

 cart.    s(11) = ( -0.5000000 -0.8660254  0.0000000 )
                  ( -0.8660254  0.5000000  0.0000000 )
                  (  0.0000000  0.0000000 -1.0000000 )


      isym = 12     180 deg rotation - cryst. axis [1,1,0]       

 cryst.   s(12) = (     0          1          0      )
                  (     1          0          0      )
                  (     0          0         -1      )

 cart.    s(12) = ( -0.5000000  0.8660254  0.0000000 )
                  (  0.8660254  0.5000000  0.0000000 )
                  (  0.0000000  0.0000000 -1.0000000 )


      isym = 13     inversion                                    

 cryst.   s(13) = (    -1          0          0      )
                  (     0         -1          0      )
                  (     0          0         -1      )

 cart.    s(13) = ( -1.0000000  0.0000000  0.0000000 )
                  (  0.0000000 -1.0000000  0.0000000 )
                  (  0.0000000  0.0000000 -1.0000000 )


      isym = 14     inv. 180 deg rotation - cart. axis [0,0,1]   

 cryst.   s(14) = (     1          0          0      )    f =(  0.0000000 )
                  (     0          1          0      )       (  0.0000000 )
                  (     0          0         -1      )       (  0.5000000 )

 cart.    s(14) = (  1.0000000  0.0000000  0.0000000 )    f =(  0.0000000 )
                  (  0.0000000  1.0000000  0.0000000 )       (  0.0000000 )
                  (  0.0000000  0.0000000 -1.0000000 )       (  1.5813036 )


      isym = 15     inv. 180 deg rotation - cart. axis [0,1,0]   

 cryst.   s(15) = (     1          0          0      )    f =(  0.0000000 )
                  (    -1         -1          0      )       (  0.0000000 )
                  (     0          0          1      )       ( -0.5000000 )

 cart.    s(15) = (  1.0000000  0.0000000  0.0000000 )    f =(  0.0000000 )
                  (  0.0000000 -1.0000000  0.0000000 )       (  0.0000000 )
                  (  0.0000000  0.0000000  1.0000000 )       ( -1.5813036 )


      isym = 16     inv. 180 deg rotation - cart. axis [1,0,0]   

 cryst.   s(16) = (    -1          0          0      )
                  (     1          1          0      )
                  (     0          0          1      )

 cart.    s(16) = ( -1.0000000  0.0000000  0.0000000 )
                  (  0.0000000  1.0000000  0.0000000 )
                  (  0.0000000  0.0000000  1.0000000 )


      isym = 17     inv.  60 deg rotation - cryst. axis [0,0,1]  

 cryst.   s(17) = (    -1         -1          0      )    f =(  0.0000000 )
                  (     1          0          0      )       (  0.0000000 )
                  (     0          0         -1      )       (  0.5000000 )

 cart.    s(17) = ( -0.5000000  0.8660254  0.0000000 )    f =(  0.0000000 )
                  ( -0.8660254 -0.5000000  0.0000000 )       (  0.0000000 )
                  (  0.0000000  0.0000000 -1.0000000 )       (  1.5813036 )


      isym = 18     inv.  60 deg rotation - cryst. axis [0,0,-1] 

 cryst.   s(18) = (     0          1          0      )    f =(  0.0000000 )
                  (    -1         -1          0      )       (  0.0000000 )
                  (     0          0         -1      )       (  0.5000000 )

 cart.    s(18) = ( -0.5000000 -0.8660254  0.0000000 )    f =(  0.0000000 )
                  (  0.8660254 -0.5000000  0.0000000 )       (  0.0000000 )
                  (  0.0000000  0.0000000 -1.0000000 )       (  1.5813036 )


      isym = 19     inv. 120 deg rotation - cryst. axis [0,0,1]  

 cryst.   s(19) = (     0         -1          0      )
                  (     1          1          0      )
                  (     0          0         -1      )

 cart.    s(19) = (  0.5000000  0.8660254  0.0000000 )
                  ( -0.8660254  0.5000000  0.0000000 )
                  (  0.0000000  0.0000000 -1.0000000 )


      isym = 20     inv. 120 deg rotation - cryst. axis [0,0,-1] 

 cryst.   s(20) = (     1          1          0      )
                  (    -1          0          0      )
                  (     0          0         -1      )

 cart.    s(20) = (  0.5000000 -0.8660254  0.0000000 )
                  (  0.8660254  0.5000000  0.0000000 )
                  (  0.0000000  0.0000000 -1.0000000 )


      isym = 21     inv. 180 deg rotation - cryst. axis [1,-1,0] 

 cryst.   s(21) = (     0          1          0      )    f =(  0.0000000 )
                  (     1          0          0      )       (  0.0000000 )
                  (     0          0          1      )       ( -0.5000000 )

 cart.    s(21) = ( -0.5000000  0.8660254  0.0000000 )    f =(  0.0000000 )
                  (  0.8660254  0.5000000  0.0000000 )       (  0.0000000 )
                  (  0.0000000  0.0000000  1.0000000 )       ( -1.5813036 )


      isym = 22     inv. 180 deg rotation - cryst. axis [2,1,0]  

 cryst.   s(22) = (    -1         -1          0      )    f =(  0.0000000 )
                  (     0          1          0      )       (  0.0000000 )
                  (     0          0          1      )       ( -0.5000000 )

 cart.    s(22) = ( -0.5000000 -0.8660254  0.0000000 )    f =(  0.0000000 )
                  ( -0.8660254  0.5000000  0.0000000 )       (  0.0000000 )
                  (  0.0000000  0.0000000  1.0000000 )       ( -1.5813036 )


      isym = 23     inv. 180 deg rotation - cryst. axis [0,1,0]  

 cryst.   s(23) = (     1          1          0      )
                  (     0         -1          0      )
                  (     0          0          1      )

 cart.    s(23) = (  0.5000000  0.8660254  0.0000000 )
                  (  0.8660254 -0.5000000  0.0000000 )
                  (  0.0000000  0.0000000  1.0000000 )


      isym = 24     inv. 180 deg rotation - cryst. axis [1,1,0]  

 cryst.   s(24) = (     0         -1          0      )
                  (    -1          0          0      )
                  (     0          0          1      )

 cart.    s(24) = (  0.5000000 -0.8660254  0.0000000 )
                  ( -0.8660254 -0.5000000  0.0000000 )
                  (  0.0000000  0.0000000  1.0000000 )


   Cartesian axes

     site n.     atom                  positions (alat units)
         1        C      tau(   1) = (   0.0000000   0.0000000   0.7906518  )
         2        C      tau(   2) = (   0.0000000   0.0000000   2.3719554  )
         3        C      tau(   3) = (  -0.0000000   0.5773503   0.7906518  )
         4        C      tau(   4) = (   0.5000000   0.2886751   2.3719554  )

   Crystallographic axes

     site n.     atom                  positions (cryst. coord.)
         1        C      tau(   1) = (  0.0000000  0.0000000  0.2500000  )
         2        C      tau(   2) = (  0.0000000  0.0000000  0.7500000  )
         3        C      tau(   3) = (  0.3333333  0.6666667  0.2500000  )
         4        C      tau(   4) = (  0.6666667  0.3333333  0.7500000  )

     number of k points=   176  Marzari-Vanderbilt smearing, width (Ry)=  0.0200
                       cart. coord. in units 2pi/alat
        k(    1) = (   0.0000000   0.0000000   0.0000000), wk =   0.0008333
        k(    2) = (   0.0000000   0.0000000   0.0526991), wk =   0.0016667
        k(    3) = (   0.0000000   0.0000000   0.1053983), wk =   0.0016667
        k(    4) = (   0.0000000   0.0000000  -0.1580974), wk =   0.0008333
        k(    5) = (   0.0000000   0.0577350   0.0000000), wk =   0.0050000
        k(    6) = (   0.0000000   0.0577350   0.0526991), wk =   0.0100000
        k(    7) = (   0.0000000   0.0577350   0.1053983), wk =   0.0100000
        k(    8) = (   0.0000000   0.0577350  -0.1580974), wk =   0.0050000
        k(    9) = (   0.0000000   0.1154701   0.0000000), wk =   0.0050000
        k(   10) = (   0.0000000   0.1154701   0.0526991), wk =   0.0100000
        k(   11) = (   0.0000000   0.1154701   0.1053983), wk =   0.0100000
        k(   12) = (   0.0000000   0.1154701  -0.1580974), wk =   0.0050000
        k(   13) = (   0.0000000   0.1732051   0.0000000), wk =   0.0050000
        k(   14) = (   0.0000000   0.1732051   0.0526991), wk =   0.0100000
        k(   15) = (   0.0000000   0.1732051   0.1053983), wk =   0.0100000
        k(   16) = (   0.0000000   0.1732051  -0.1580974), wk =   0.0050000
        k(   17) = (   0.0000000   0.2309401   0.0000000), wk =   0.0050000
        k(   18) = (   0.0000000   0.2309401   0.0526991), wk =   0.0100000
        k(   19) = (   0.0000000   0.2309401   0.1053983), wk =   0.0100000
        k(   20) = (   0.0000000   0.2309401  -0.1580974), wk =   0.0050000
        k(   21) = (   0.0000000   0.2886751   0.0000000), wk =   0.0050000
        k(   22) = (   0.0000000   0.2886751   0.0526991), wk =   0.0100000
        k(   23) = (   0.0000000   0.2886751   0.1053983), wk =   0.0100000
        k(   24) = (   0.0000000   0.2886751  -0.1580974), wk =   0.0050000
        k(   25) = (   0.0000000   0.3464102   0.0000000), wk =   0.0050000
        k(   26) = (   0.0000000   0.3464102   0.0526991), wk =   0.0100000
        k(   27) = (   0.0000000   0.3464102   0.1053983), wk =   0.0100000
        k(   28) = (   0.0000000   0.3464102  -0.1580974), wk =   0.0050000
        k(   29) = (   0.0000000   0.4041452   0.0000000), wk =   0.0050000
        k(   30) = (   0.0000000   0.4041452   0.0526991), wk =   0.0100000
        k(   31) = (   0.0000000   0.4041452   0.1053983), wk =   0.0100000
        k(   32) = (   0.0000000   0.4041452  -0.1580974), wk =   0.0050000
        k(   33) = (   0.0000000   0.4618802   0.0000000), wk =   0.0050000
        k(   34) = (   0.0000000   0.4618802   0.0526991), wk =   0.0100000
        k(   35) = (   0.0000000   0.4618802   0.1053983), wk =   0.0100000
        k(   36) = (   0.0000000   0.4618802  -0.1580974), wk =   0.0050000
        k(   37) = (   0.0000000   0.5196152   0.0000000), wk =   0.0050000
        k(   38) = (   0.0000000   0.5196152   0.0526991), wk =   0.0100000
        k(   39) = (   0.0000000   0.5196152   0.1053983), wk =   0.0100000
        k(   40) = (   0.0000000   0.5196152  -0.1580974), wk =   0.0050000
        k(   41) = (   0.0000000  -0.5773503   0.0000000), wk =   0.0025000
        k(   42) = (   0.0000000  -0.5773503   0.0526991), wk =   0.0050000
        k(   43) = (   0.0000000  -0.5773503   0.1053983), wk =   0.0050000
        k(   44) = (   0.0000000  -0.5773503  -0.1580974), wk =   0.0025000
        k(   45) = (   0.0500000   0.0866025   0.0000000), wk =   0.0050000
        k(   46) = (   0.0500000   0.0866025   0.0526991), wk =   0.0100000
        k(   47) = (   0.0500000   0.0866025   0.1053983), wk =   0.0100000
        k(   48) = (   0.0500000   0.0866025  -0.1580974), wk =   0.0050000
        k(   49) = (   0.0500000   0.1443376   0.0000000), wk =   0.0100000
        k(   50) = (   0.0500000   0.1443376   0.0526991), wk =   0.0200000
        k(   51) = (   0.0500000   0.1443376   0.1053983), wk =   0.0200000
        k(   52) = (   0.0500000   0.1443376  -0.1580974), wk =   0.0100000
        k(   53) = (   0.0500000   0.2020726   0.0000000), wk =   0.0100000
        k(   54) = (   0.0500000   0.2020726   0.0526991), wk =   0.0200000
        k(   55) = (   0.0500000   0.2020726   0.1053983), wk =   0.0200000
        k(   56) = (   0.0500000   0.2020726  -0.1580974), wk =   0.0100000
        k(   57) = (   0.0500000   0.2598076   0.0000000), wk =   0.0100000
        k(   58) = (   0.0500000   0.2598076   0.0526991), wk =   0.0200000
        k(   59) = (   0.0500000   0.2598076   0.1053983), wk =   0.0200000
        k(   60) = (   0.0500000   0.2598076  -0.1580974), wk =   0.0100000
        k(   61) = (   0.0500000   0.3175426   0.0000000), wk =   0.0100000
        k(   62) = (   0.0500000   0.3175426   0.0526991), wk =   0.0200000
        k(   63) = (   0.0500000   0.3175426   0.1053983), wk =   0.0200000
        k(   64) = (   0.0500000   0.3175426  -0.1580974), wk =   0.0100000
        k(   65) = (   0.0500000   0.3752777   0.0000000), wk =   0.0100000
        k(   66) = (   0.0500000   0.3752777   0.0526991), wk =   0.0200000
        k(   67) = (   0.0500000   0.3752777   0.1053983), wk =   0.0200000
        k(   68) = (   0.0500000   0.3752777  -0.1580974), wk =   0.0100000
        k(   69) = (   0.0500000   0.4330127   0.0000000), wk =   0.0100000
        k(   70) = (   0.0500000   0.4330127   0.0526991), wk =   0.0200000
        k(   71) = (   0.0500000   0.4330127   0.1053983), wk =   0.0200000
        k(   72) = (   0.0500000   0.4330127  -0.1580974), wk =   0.0100000
        k(   73) = (   0.0500000   0.4907477   0.0000000), wk =   0.0100000
        k(   74) = (   0.0500000   0.4907477   0.0526991), wk =   0.0200000
        k(   75) = (   0.0500000   0.4907477   0.1053983), wk =   0.0200000
        k(   76) = (   0.0500000   0.4907477  -0.1580974), wk =   0.0100000
        k(   77) = (   0.0500000   0.5484828   0.0000000), wk =   0.0100000
        k(   78) = (   0.0500000   0.5484828   0.0526991), wk =   0.0200000
        k(   79) = (   0.0500000   0.5484828   0.1053983), wk =   0.0200000
        k(   80) = (   0.0500000   0.5484828  -0.1580974), wk =   0.0100000
        k(   81) = (   0.1000000   0.1732051   0.0000000), wk =   0.0050000
        k(   82) = (   0.1000000   0.1732051   0.0526991), wk =   0.0100000
        k(   83) = (   0.1000000   0.1732051   0.1053983), wk =   0.0100000
        k(   84) = (   0.1000000   0.1732051  -0.1580974), wk =   0.0050000
        k(   85) = (   0.1000000   0.2309401   0.0000000), wk =   0.0100000
        k(   86) = (   0.1000000   0.2309401   0.0526991), wk =   0.0200000
        k(   87) = (   0.1000000   0.2309401   0.1053983), wk =   0.0200000
        k(   88) = (   0.1000000   0.2309401  -0.1580974), wk =   0.0100000
        k(   89) = (   0.1000000   0.2886751   0.0000000), wk =   0.0100000
        k(   90) = (   0.1000000   0.2886751   0.0526991), wk =   0.0200000
        k(   91) = (   0.1000000   0.2886751   0.1053983), wk =   0.0200000
        k(   92) = (   0.1000000   0.2886751  -0.1580974), wk =   0.0100000
        k(   93) = (   0.1000000   0.3464102   0.0000000), wk =   0.0100000
        k(   94) = (   0.1000000   0.3464102   0.0526991), wk =   0.0200000
        k(   95) = (   0.1000000   0.3464102   0.1053983), wk =   0.0200000
        k(   96) = (   0.1000000   0.3464102  -0.1580974), wk =   0.0100000
        k(   97) = (   0.1000000   0.4041452   0.0000000), wk =   0.0100000
        k(   98) = (   0.1000000   0.4041452   0.0526991), wk =   0.0200000
        k(   99) = (   0.1000000   0.4041452   0.1053983), wk =   0.0200000
        k(  100) = (   0.1000000   0.4041452  -0.1580974), wk =   0.0100000
        k(  101) = (   0.1000000   0.4618802   0.0000000), wk =   0.0100000
        k(  102) = (   0.1000000   0.4618802   0.0526991), wk =   0.0200000
        k(  103) = (   0.1000000   0.4618802   0.1053983), wk =   0.0200000
        k(  104) = (   0.1000000   0.4618802  -0.1580974), wk =   0.0100000
        k(  105) = (   0.1000000   0.5196152   0.0000000), wk =   0.0100000
        k(  106) = (   0.1000000   0.5196152   0.0526991), wk =   0.0200000
        k(  107) = (   0.1000000   0.5196152   0.1053983), wk =   0.0200000
        k(  108) = (   0.1000000   0.5196152  -0.1580974), wk =   0.0100000
        k(  109) = (   0.1000000   0.5773503   0.0000000), wk =   0.0050000
        k(  110) = (   0.1000000   0.5773503   0.0526991), wk =   0.0100000
        k(  111) = (   0.1000000   0.5773503   0.1053983), wk =   0.0100000
        k(  112) = (   0.1000000   0.5773503  -0.1580974), wk =   0.0050000
        k(  113) = (   0.1500000   0.2598076   0.0000000), wk =   0.0050000
        k(  114) = (   0.1500000   0.2598076   0.0526991), wk =   0.0100000
        k(  115) = (   0.1500000   0.2598076   0.1053983), wk =   0.0100000
        k(  116) = (   0.1500000   0.2598076  -0.1580974), wk =   0.0050000
        k(  117) = (   0.1500000   0.3175426   0.0000000), wk =   0.0100000
        k(  118) = (   0.1500000   0.3175426   0.0526991), wk =   0.0200000
        k(  119) = (   0.1500000   0.3175426   0.1053983), wk =   0.0200000
        k(  120) = (   0.1500000   0.3175426  -0.1580974), wk =   0.0100000
        k(  121) = (   0.1500000   0.3752777   0.0000000), wk =   0.0100000
        k(  122) = (   0.1500000   0.3752777   0.0526991), wk =   0.0200000
        k(  123) = (   0.1500000   0.3752777   0.1053983), wk =   0.0200000
        k(  124) = (   0.1500000   0.3752777  -0.1580974), wk =   0.0100000
        k(  125) = (   0.1500000   0.4330127   0.0000000), wk =   0.0100000
        k(  126) = (   0.1500000   0.4330127   0.0526991), wk =   0.0200000
        k(  127) = (   0.1500000   0.4330127   0.1053983), wk =   0.0200000
        k(  128) = (   0.1500000   0.4330127  -0.1580974), wk =   0.0100000
        k(  129) = (   0.1500000   0.4907477   0.0000000), wk =   0.0100000
        k(  130) = (   0.1500000   0.4907477   0.0526991), wk =   0.0200000
        k(  131) = (   0.1500000   0.4907477   0.1053983), wk =   0.0200000
        k(  132) = (   0.1500000   0.4907477  -0.1580974), wk =   0.0100000
        k(  133) = (   0.1500000   0.5484828   0.0000000), wk =   0.0100000
        k(  134) = (   0.1500000   0.5484828   0.0526991), wk =   0.0200000
        k(  135) = (   0.1500000   0.5484828   0.1053983), wk =   0.0200000
        k(  136) = (   0.1500000   0.5484828  -0.1580974), wk =   0.0100000
        k(  137) = (   0.2000000   0.3464102   0.0000000), wk =   0.0050000
        k(  138) = (   0.2000000   0.3464102   0.0526991), wk =   0.0100000
        k(  139) = (   0.2000000   0.3464102   0.1053983), wk =   0.0100000
        k(  140) = (   0.2000000   0.3464102  -0.1580974), wk =   0.0050000
        k(  141) = (   0.2000000   0.4041452   0.0000000), wk =   0.0100000
        k(  142) = (   0.2000000   0.4041452   0.0526991), wk =   0.0200000
        k(  143) = (   0.2000000   0.4041452   0.1053983), wk =   0.0200000
        k(  144) = (   0.2000000   0.4041452  -0.1580974), wk =   0.0100000
        k(  145) = (   0.2000000   0.4618802   0.0000000), wk =   0.0100000
        k(  146) = (   0.2000000   0.4618802   0.0526991), wk =   0.0200000
        k(  147) = (   0.2000000   0.4618802   0.1053983), wk =   0.0200000
        k(  148) = (   0.2000000   0.4618802  -0.1580974), wk =   0.0100000
        k(  149) = (   0.2000000   0.5196152   0.0000000), wk =   0.0100000
        k(  150) = (   0.2000000   0.5196152   0.0526991), wk =   0.0200000
        k(  151) = (   0.2000000   0.5196152   0.1053983), wk =   0.0200000
        k(  152) = (   0.2000000   0.5196152  -0.1580974), wk =   0.0100000
        k(  153) = (   0.2000000   0.5773503   0.0000000), wk =   0.0050000
        k(  154) = (   0.2000000   0.5773503   0.0526991), wk =   0.0100000
        k(  155) = (   0.2000000   0.5773503   0.1053983), wk =   0.0100000
        k(  156) = (   0.2000000   0.5773503  -0.1580974), wk =   0.0050000
        k(  157) = (   0.2500000   0.4330127   0.0000000), wk =   0.0050000
        k(  158) = (   0.2500000   0.4330127   0.0526991), wk =   0.0100000
        k(  159) = (   0.2500000   0.4330127   0.1053983), wk =   0.0100000
        k(  160) = (   0.2500000   0.4330127  -0.1580974), wk =   0.0050000
        k(  161) = (   0.2500000   0.4907477   0.0000000), wk =   0.0100000
        k(  162) = (   0.2500000   0.4907477   0.0526991), wk =   0.0200000
        k(  163) = (   0.2500000   0.4907477   0.1053983), wk =   0.0200000
        k(  164) = (   0.2500000   0.4907477  -0.1580974), wk =   0.0100000
        k(  165) = (   0.2500000   0.5484828   0.0000000), wk =   0.0100000
        k(  166) = (   0.2500000   0.5484828   0.0526991), wk =   0.0200000
        k(  167) = (   0.2500000   0.5484828   0.1053983), wk =   0.0200000
        k(  168) = (   0.2500000   0.5484828  -0.1580974), wk =   0.0100000
        k(  169) = (   0.3000000   0.5196152   0.0000000), wk =   0.0050000
        k(  170) = (   0.3000000   0.5196152   0.0526991), wk =   0.0100000
        k(  171) = (   0.3000000   0.5196152   0.1053983), wk =   0.0100000
        k(  172) = (   0.3000000   0.5196152  -0.1580974), wk =   0.0050000
        k(  173) = (   0.3000000   0.5773503   0.0000000), wk =   0.0050000
        k(  174) = (   0.3000000   0.5773503   0.0526991), wk =   0.0100000
        k(  175) = (   0.3000000   0.5773503   0.1053983), wk =   0.0100000
        k(  176) = (   0.3000000   0.5773503  -0.1580974), wk =   0.0050000

                       cryst. coord.
        k(    1) = (   0.0000000   0.0000000   0.0000000), wk =   0.0008333
        k(    2) = (   0.0000000   0.0000000   0.1666667), wk =   0.0016667
        k(    3) = (   0.0000000   0.0000000   0.3333333), wk =   0.0016667
        k(    4) = (   0.0000000   0.0000000  -0.5000000), wk =   0.0008333
        k(    5) = (   0.0000000   0.0500000   0.0000000), wk =   0.0050000
        k(    6) = (   0.0000000   0.0500000   0.1666667), wk =   0.0100000
        k(    7) = (   0.0000000   0.0500000   0.3333333), wk =   0.0100000
        k(    8) = (   0.0000000   0.0500000  -0.5000000), wk =   0.0050000
        k(    9) = (   0.0000000   0.1000000   0.0000000), wk =   0.0050000
        k(   10) = (   0.0000000   0.1000000   0.1666667), wk =   0.0100000
        k(   11) = (   0.0000000   0.1000000   0.3333333), wk =   0.0100000
        k(   12) = (   0.0000000   0.1000000  -0.5000000), wk =   0.0050000
        k(   13) = (   0.0000000   0.1500000   0.0000000), wk =   0.0050000
        k(   14) = (   0.0000000   0.1500000   0.1666667), wk =   0.0100000
        k(   15) = (   0.0000000   0.1500000   0.3333333), wk =   0.0100000
        k(   16) = (   0.0000000   0.1500000  -0.5000000), wk =   0.0050000
        k(   17) = (   0.0000000   0.2000000   0.0000000), wk =   0.0050000
        k(   18) = (   0.0000000   0.2000000   0.1666667), wk =   0.0100000
        k(   19) = (   0.0000000   0.2000000   0.3333333), wk =   0.0100000
        k(   20) = (   0.0000000   0.2000000  -0.5000000), wk =   0.0050000
        k(   21) = (   0.0000000   0.2500000   0.0000000), wk =   0.0050000
        k(   22) = (   0.0000000   0.2500000   0.1666667), wk =   0.0100000
        k(   23) = (   0.0000000   0.2500000   0.3333333), wk =   0.0100000
        k(   24) = (   0.0000000   0.2500000  -0.5000000), wk =   0.0050000
        k(   25) = (   0.0000000   0.3000000   0.0000000), wk =   0.0050000
        k(   26) = (   0.0000000   0.3000000   0.1666667), wk =   0.0100000
        k(   27) = (   0.0000000   0.3000000   0.3333333), wk =   0.0100000
        k(   28) = (   0.0000000   0.3000000  -0.5000000), wk =   0.0050000
        k(   29) = (   0.0000000   0.3500000   0.0000000), wk =   0.0050000
        k(   30) = (   0.0000000   0.3500000   0.1666667), wk =   0.0100000
        k(   31) = (   0.0000000   0.3500000   0.3333333), wk =   0.0100000
        k(   32) = (   0.0000000   0.3500000  -0.5000000), wk =   0.0050000
        k(   33) = (   0.0000000   0.4000000   0.0000000), wk =   0.0050000
        k(   34) = (   0.0000000   0.4000000   0.1666667), wk =   0.0100000
        k(   35) = (   0.0000000   0.4000000   0.3333333), wk =   0.0100000
        k(   36) = (   0.0000000   0.4000000  -0.5000000), wk =   0.0050000
        k(   37) = (   0.0000000   0.4500000   0.0000000), wk =   0.0050000
        k(   38) = (   0.0000000   0.4500000   0.1666667), wk =   0.0100000
        k(   39) = (   0.0000000   0.4500000   0.3333333), wk =   0.0100000
        k(   40) = (   0.0000000   0.4500000  -0.5000000), wk =   0.0050000
        k(   41) = (   0.0000000  -0.5000000   0.0000000), wk =   0.0025000
        k(   42) = (   0.0000000  -0.5000000   0.1666667), wk =   0.0050000
        k(   43) = (   0.0000000  -0.5000000   0.3333333), wk =   0.0050000
        k(   44) = (   0.0000000  -0.5000000  -0.5000000), wk =   0.0025000
        k(   45) = (   0.0500000   0.0500000   0.0000000), wk =   0.0050000
        k(   46) = (   0.0500000   0.0500000   0.1666667), wk =   0.0100000
        k(   47) = (   0.0500000   0.0500000   0.3333333), wk =   0.0100000
        k(   48) = (   0.0500000   0.0500000  -0.5000000), wk =   0.0050000
        k(   49) = (   0.0500000   0.1000000   0.0000000), wk =   0.0100000
        k(   50) = (   0.0500000   0.1000000   0.1666667), wk =   0.0200000
        k(   51) = (   0.0500000   0.1000000   0.3333333), wk =   0.0200000
        k(   52) = (   0.0500000   0.1000000  -0.5000000), wk =   0.0100000
        k(   53) = (   0.0500000   0.1500000   0.0000000), wk =   0.0100000
        k(   54) = (   0.0500000   0.1500000   0.1666667), wk =   0.0200000
        k(   55) = (   0.0500000   0.1500000   0.3333333), wk =   0.0200000
        k(   56) = (   0.0500000   0.1500000  -0.5000000), wk =   0.0100000
        k(   57) = (   0.0500000   0.2000000   0.0000000), wk =   0.0100000
        k(   58) = (   0.0500000   0.2000000   0.1666667), wk =   0.0200000
        k(   59) = (   0.0500000   0.2000000   0.3333333), wk =   0.0200000
        k(   60) = (   0.0500000   0.2000000  -0.5000000), wk =   0.0100000
        k(   61) = (   0.0500000   0.2500000   0.0000000), wk =   0.0100000
        k(   62) = (   0.0500000   0.2500000   0.1666667), wk =   0.0200000
        k(   63) = (   0.0500000   0.2500000   0.3333333), wk =   0.0200000
        k(   64) = (   0.0500000   0.2500000  -0.5000000), wk =   0.0100000
        k(   65) = (   0.0500000   0.3000000   0.0000000), wk =   0.0100000
        k(   66) = (   0.0500000   0.3000000   0.1666667), wk =   0.0200000
        k(   67) = (   0.0500000   0.3000000   0.3333333), wk =   0.0200000
        k(   68) = (   0.0500000   0.3000000  -0.5000000), wk =   0.0100000
        k(   69) = (   0.0500000   0.3500000   0.0000000), wk =   0.0100000
        k(   70) = (   0.0500000   0.3500000   0.1666667), wk =   0.0200000
        k(   71) = (   0.0500000   0.3500000   0.3333333), wk =   0.0200000
        k(   72) = (   0.0500000   0.3500000  -0.5000000), wk =   0.0100000
        k(   73) = (   0.0500000   0.4000000   0.0000000), wk =   0.0100000
        k(   74) = (   0.0500000   0.4000000   0.1666667), wk =   0.0200000
        k(   75) = (   0.0500000   0.4000000   0.3333333), wk =   0.0200000
        k(   76) = (   0.0500000   0.4000000  -0.5000000), wk =   0.0100000
        k(   77) = (   0.0500000   0.4500000   0.0000000), wk =   0.0100000
        k(   78) = (   0.0500000   0.4500000   0.1666667), wk =   0.0200000
        k(   79) = (   0.0500000   0.4500000   0.3333333), wk =   0.0200000
        k(   80) = (   0.0500000   0.4500000  -0.5000000), wk =   0.0100000
        k(   81) = (   0.1000000   0.1000000   0.0000000), wk =   0.0050000
        k(   82) = (   0.1000000   0.1000000   0.1666667), wk =   0.0100000
        k(   83) = (   0.1000000   0.1000000   0.3333333), wk =   0.0100000
        k(   84) = (   0.1000000   0.1000000  -0.5000000), wk =   0.0050000
        k(   85) = (   0.1000000   0.1500000   0.0000000), wk =   0.0100000
        k(   86) = (   0.1000000   0.1500000   0.1666667), wk =   0.0200000
        k(   87) = (   0.1000000   0.1500000   0.3333333), wk =   0.0200000
        k(   88) = (   0.1000000   0.1500000  -0.5000000), wk =   0.0100000
        k(   89) = (   0.1000000   0.2000000   0.0000000), wk =   0.0100000
        k(   90) = (   0.1000000   0.2000000   0.1666667), wk =   0.0200000
        k(   91) = (   0.1000000   0.2000000   0.3333333), wk =   0.0200000
        k(   92) = (   0.1000000   0.2000000  -0.5000000), wk =   0.0100000
        k(   93) = (   0.1000000   0.2500000   0.0000000), wk =   0.0100000
        k(   94) = (   0.1000000   0.2500000   0.1666667), wk =   0.0200000
        k(   95) = (   0.1000000   0.2500000   0.3333333), wk =   0.0200000
        k(   96) = (   0.1000000   0.2500000  -0.5000000), wk =   0.0100000
        k(   97) = (   0.1000000   0.3000000   0.0000000), wk =   0.0100000
        k(   98) = (   0.1000000   0.3000000   0.1666667), wk =   0.0200000
        k(   99) = (   0.1000000   0.3000000   0.3333333), wk =   0.0200000
        k(  100) = (   0.1000000   0.3000000  -0.5000000), wk =   0.0100000
        k(  101) = (   0.1000000   0.3500000   0.0000000), wk =   0.0100000
        k(  102) = (   0.1000000   0.3500000   0.1666667), wk =   0.0200000
        k(  103) = (   0.1000000   0.3500000   0.3333333), wk =   0.0200000
        k(  104) = (   0.1000000   0.3500000  -0.5000000), wk =   0.0100000
        k(  105) = (   0.1000000   0.4000000   0.0000000), wk =   0.0100000
        k(  106) = (   0.1000000   0.4000000   0.1666667), wk =   0.0200000
        k(  107) = (   0.1000000   0.4000000   0.3333333), wk =   0.0200000
        k(  108) = (   0.1000000   0.4000000  -0.5000000), wk =   0.0100000
        k(  109) = (   0.1000000   0.4500000   0.0000000), wk =   0.0050000
        k(  110) = (   0.1000000   0.4500000   0.1666667), wk =   0.0100000
        k(  111) = (   0.1000000   0.4500000   0.3333333), wk =   0.0100000
        k(  112) = (   0.1000000   0.4500000  -0.5000000), wk =   0.0050000
        k(  113) = (   0.1500000   0.1500000   0.0000000), wk =   0.0050000
        k(  114) = (   0.1500000   0.1500000   0.1666667), wk =   0.0100000
        k(  115) = (   0.1500000   0.1500000   0.3333333), wk =   0.0100000
        k(  116) = (   0.1500000   0.1500000  -0.5000000), wk =   0.0050000
        k(  117) = (   0.1500000   0.2000000   0.0000000), wk =   0.0100000
        k(  118) = (   0.1500000   0.2000000   0.1666667), wk =   0.0200000
        k(  119) = (   0.1500000   0.2000000   0.3333333), wk =   0.0200000
        k(  120) = (   0.1500000   0.2000000  -0.5000000), wk =   0.0100000
        k(  121) = (   0.1500000   0.2500000   0.0000000), wk =   0.0100000
        k(  122) = (   0.1500000   0.2500000   0.1666667), wk =   0.0200000
        k(  123) = (   0.1500000   0.2500000   0.3333333), wk =   0.0200000
        k(  124) = (   0.1500000   0.2500000  -0.5000000), wk =   0.0100000
        k(  125) = (   0.1500000   0.3000000   0.0000000), wk =   0.0100000
        k(  126) = (   0.1500000   0.3000000   0.1666667), wk =   0.0200000
        k(  127) = (   0.1500000   0.3000000   0.3333333), wk =   0.0200000
        k(  128) = (   0.1500000   0.3000000  -0.5000000), wk =   0.0100000
        k(  129) = (   0.1500000   0.3500000   0.0000000), wk =   0.0100000
        k(  130) = (   0.1500000   0.3500000   0.1666667), wk =   0.0200000
        k(  131) = (   0.1500000   0.3500000   0.3333333), wk =   0.0200000
        k(  132) = (   0.1500000   0.3500000  -0.5000000), wk =   0.0100000
        k(  133) = (   0.1500000   0.4000000   0.0000000), wk =   0.0100000
        k(  134) = (   0.1500000   0.4000000   0.1666667), wk =   0.0200000
        k(  135) = (   0.1500000   0.4000000   0.3333333), wk =   0.0200000
        k(  136) = (   0.1500000   0.4000000  -0.5000000), wk =   0.0100000
        k(  137) = (   0.2000000   0.2000000   0.0000000), wk =   0.0050000
        k(  138) = (   0.2000000   0.2000000   0.1666667), wk =   0.0100000
        k(  139) = (   0.2000000   0.2000000   0.3333333), wk =   0.0100000
        k(  140) = (   0.2000000   0.2000000  -0.5000000), wk =   0.0050000
        k(  141) = (   0.2000000   0.2500000   0.0000000), wk =   0.0100000
        k(  142) = (   0.2000000   0.2500000   0.1666667), wk =   0.0200000
        k(  143) = (   0.2000000   0.2500000   0.3333333), wk =   0.0200000
        k(  144) = (   0.2000000   0.2500000  -0.5000000), wk =   0.0100000
        k(  145) = (   0.2000000   0.3000000   0.0000000), wk =   0.0100000
        k(  146) = (   0.2000000   0.3000000   0.1666667), wk =   0.0200000
        k(  147) = (   0.2000000   0.3000000   0.3333333), wk =   0.0200000
        k(  148) = (   0.2000000   0.3000000  -0.5000000), wk =   0.0100000
        k(  149) = (   0.2000000   0.3500000   0.0000000), wk =   0.0100000
        k(  150) = (   0.2000000   0.3500000   0.1666667), wk =   0.0200000
        k(  151) = (   0.2000000   0.3500000   0.3333333), wk =   0.0200000
        k(  152) = (   0.2000000   0.3500000  -0.5000000), wk =   0.0100000
        k(  153) = (   0.2000000   0.4000000   0.0000000), wk =   0.0050000
        k(  154) = (   0.2000000   0.4000000   0.1666667), wk =   0.0100000
        k(  155) = (   0.2000000   0.4000000   0.3333333), wk =   0.0100000
        k(  156) = (   0.2000000   0.4000000  -0.5000000), wk =   0.0050000
        k(  157) = (   0.2500000   0.2500000   0.0000000), wk =   0.0050000
        k(  158) = (   0.2500000   0.2500000   0.1666667), wk =   0.0100000
        k(  159) = (   0.2500000   0.2500000   0.3333333), wk =   0.0100000
        k(  160) = (   0.2500000   0.2500000  -0.5000000), wk =   0.0050000
        k(  161) = (   0.2500000   0.3000000   0.0000000), wk =   0.0100000
        k(  162) = (   0.2500000   0.3000000   0.1666667), wk =   0.0200000
        k(  163) = (   0.2500000   0.3000000   0.3333333), wk =   0.0200000
        k(  164) = (   0.2500000   0.3000000  -0.5000000), wk =   0.0100000
        k(  165) = (   0.2500000   0.3500000   0.0000000), wk =   0.0100000
        k(  166) = (   0.2500000   0.3500000   0.1666667), wk =   0.0200000
        k(  167) = (   0.2500000   0.3500000   0.3333333), wk =   0.0200000
        k(  168) = (   0.2500000   0.3500000  -0.5000000), wk =   0.0100000
        k(  169) = (   0.3000000   0.3000000   0.0000000), wk =   0.0050000
        k(  170) = (   0.3000000   0.3000000   0.1666667), wk =   0.0100000
        k(  171) = (   0.3000000   0.3000000   0.3333333), wk =   0.0100000
        k(  172) = (   0.3000000   0.3000000  -0.5000000), wk =   0.0050000
        k(  173) = (   0.3000000   0.3500000   0.0000000), wk =   0.0050000
        k(  174) = (   0.3000000   0.3500000   0.1666667), wk =   0.0100000
        k(  175) = (   0.3000000   0.3500000   0.3333333), wk =   0.0100000
        k(  176) = (   0.3000000   0.3500000  -0.5000000), wk =   0.0050000

     Dense  grid:    32075 G-vectors     FFT dimensions: (  30,  30,  90)

     Smooth grid:    11271 G-vectors     FFT dimensions: (  20,  20,  64)

     Dynamical RAM for                 wfc:       0.03 MB

     Dynamical RAM for     wfc (w. buffer):       5.70 MB

     Dynamical RAM for           str. fact:       0.06 MB

     Dynamical RAM for           local pot:       0.00 MB

     Dynamical RAM for          nlocal pot:       0.09 MB

     Dynamical RAM for                qrad:       0.87 MB

     Dynamical RAM for          rho,v,vnew:       0.43 MB

     Dynamical RAM for               rhoin:       0.14 MB

     Dynamical RAM for            rho*nmix:       0.98 MB

     Dynamical RAM for           G-vectors:       0.24 MB

     Dynamical RAM for          h,s,v(r/c):       0.03 MB

     Dynamical RAM for          <psi|beta>:       0.01 MB

     Dynamical RAM for                 psi:       0.06 MB

     Dynamical RAM for                hpsi:       0.06 MB

     Dynamical RAM for                spsi:       0.06 MB

     Dynamical RAM for      wfcinit/wfcrot:       0.07 MB

     Dynamical RAM for           addusdens:       2.87 MB

     Dynamical RAM for          addusforce:       3.28 MB

     Dynamical RAM for         addusstress:       3.06 MB

     Estimated static dynamical RAM per process >       8.07 MB

     Estimated max dynamical RAM per process >      12.32 MB

     Estimated total dynamical RAM >      98.59 MB

     Check: negative core charge=   -0.000011

     Initial potential from superposition of free atoms

     starting charge      15.9998, renormalised to      16.0000
     Starting wfcs are   16 randomized atomic wfcs
     Checking if some PAW data can be deallocated... 

     total cpu time spent up to now is        0.4 secs

     Self-consistent Calculation

     iteration #  1     ecut=    45.00 Ry     beta= 0.20
     Davidson diagonalization with overlap

---- Real-time Memory Report at c_bands before calling an iterative solver
             0 MiB given to the printing process from OS
             0 MiB allocation reported by mallinfo(arena+hblkhd)
             0 MiB available memory on the node where the printing process lives
------------------
     ethr =  1.00E-02,  avg # of iterations =  2.8

     total cpu time spent up to now is        1.2 secs

     total energy              =     -73.85898223 Ry
     estimated scf accuracy    <       0.37327016 Ry

     iteration #  2     ecut=    45.00 Ry     beta= 0.20
     Davidson diagonalization with overlap

---- Real-time Memory Report at c_bands before calling an iterative solver
             0 MiB given to the printing process from OS
             0 MiB allocation reported by mallinfo(arena+hblkhd)
             0 MiB available memory on the node where the printing process lives
------------------
     ethr =  2.33E-03,  avg # of iterations =  1.2

     total cpu time spent up to now is        1.8 secs

     WARNING: integrated charge=    16.00277180, expected=    16.00000000

     total energy              =     -73.73359537 Ry
     estimated scf accuracy    <       0.20817454 Ry

     iteration #  3     ecut=    45.00 Ry     beta= 0.20
     Davidson diagonalization with overlap

---- Real-time Memory Report at c_bands before calling an iterative solver
             0 MiB given to the printing process from OS
             0 MiB allocation reported by mallinfo(arena+hblkhd)
             0 MiB available memory on the node where the printing process lives
------------------
     ethr =  1.30E-03,  avg # of iterations =  3.5

     total cpu time spent up to now is        2.8 secs

     WARNING: integrated charge=    16.00279614, expected=    16.00000000

     total energy              =     -73.77669792 Ry
     estimated scf accuracy    <       0.00755714 Ry

     iteration #  4     ecut=    45.00 Ry     beta= 0.20
     Davidson diagonalization with overlap

---- Real-time Memory Report at c_bands before calling an iterative solver
             0 MiB given to the printing process from OS
             0 MiB allocation reported by mallinfo(arena+hblkhd)
             0 MiB available memory on the node where the printing process lives
------------------
     ethr =  4.72E-05,  avg # of iterations =  5.5

     total cpu time spent up to now is        3.5 secs

     WARNING: integrated charge=    16.00320074, expected=    16.00000000

     total energy              =     -73.77183275 Ry
     estimated scf accuracy    <       0.00992477 Ry

     iteration #  5     ecut=    45.00 Ry     beta= 0.20
     Davidson diagonalization with overlap

---- Real-time Memory Report at c_bands before calling an iterative solver
             0 MiB given to the printing process from OS
             0 MiB allocation reported by mallinfo(arena+hblkhd)
             0 MiB available memory on the node where the printing process lives
------------------
     ethr =  4.72E-05,  avg # of iterations =  2.4

     total cpu time spent up to now is        4.1 secs

     WARNING: integrated charge=    16.00333022, expected=    16.00000000

     total energy              =     -73.77300771 Ry
     estimated scf accuracy    <       0.00026767 Ry

     iteration #  6     ecut=    45.00 Ry     beta= 0.20
     Davidson diagonalization with overlap

---- Real-time Memory Report at c_bands before calling an iterative solver
             0 MiB given to the printing process from OS
             0 MiB allocation reported by mallinfo(arena+hblkhd)
             0 MiB available memory on the node where the printing process lives
------------------
     c_bands:  1 eigenvalues not converged
     ethr =  1.67E-06,  avg # of iterations =  4.7

     total cpu time spent up to now is        4.7 secs

     WARNING: integrated charge=    16.00335205, expected=    16.00000000

     total energy              =     -73.77293999 Ry
     estimated scf accuracy    <       0.00036384 Ry

     iteration #  7     ecut=    45.00 Ry     beta= 0.20
     Davidson diagonalization with overlap

---- Real-time Memory Report at c_bands before calling an iterative solver
             0 MiB given to the printing process from OS
             0 MiB allocation reported by mallinfo(arena+hblkhd)
             0 MiB available memory on the node where the printing process lives
------------------
     ethr =  1.67E-06,  avg # of iterations =  1.0

     total cpu time spent up to now is        5.2 secs

     WARNING: integrated charge=    16.00335093, expected=    16.00000000

     total energy              =     -73.77289679 Ry
     estimated scf accuracy    <       0.00017712 Ry

     iteration #  8     ecut=    45.00 Ry     beta= 0.20
     Davidson diagonalization with overlap

---- Real-time Memory Report at c_bands before calling an iterative solver
             0 MiB given to the printing process from OS
             0 MiB allocation reported by mallinfo(arena+hblkhd)
             0 MiB available memory on the node where the printing process lives
------------------
     ethr =  1.11E-06,  avg # of iterations =  1.0

     total cpu time spent up to now is        5.6 secs

     WARNING: integrated charge=    16.00335649, expected=    16.00000000

     total energy              =     -73.77287438 Ry
     estimated scf accuracy    <       0.00007486 Ry

     iteration #  9     ecut=    45.00 Ry     beta= 0.20
     Davidson diagonalization with overlap

---- Real-time Memory Report at c_bands before calling an iterative solver
             0 MiB given to the printing process from OS
             0 MiB allocation reported by mallinfo(arena+hblkhd)
             0 MiB available memory on the node where the printing process lives
------------------
     ethr =  4.68E-07,  avg # of iterations =  1.0

     total cpu time spent up to now is        6.0 secs

     WARNING: integrated charge=    16.00335674, expected=    16.00000000

     total energy              =     -73.77287596 Ry
     estimated scf accuracy    <       0.00002038 Ry

     iteration # 10     ecut=    45.00 Ry     beta= 0.20
     Davidson diagonalization with overlap

---- Real-time Memory Report at c_bands before calling an iterative solver
             0 MiB given to the printing process from OS
             0 MiB allocation reported by mallinfo(arena+hblkhd)
             0 MiB available memory on the node where the printing process lives
------------------
     ethr =  1.27E-07,  avg # of iterations =  1.0

     total cpu time spent up to now is        6.5 secs

     WARNING: integrated charge=    16.00335789, expected=    16.00000000

     total energy              =     -73.77287138 Ry
     estimated scf accuracy    <       0.00001932 Ry

     iteration # 11     ecut=    45.00 Ry     beta= 0.20
     Davidson diagonalization with overlap

---- Real-time Memory Report at c_bands before calling an iterative solver
             0 MiB given to the printing process from OS
             0 MiB allocation reported by mallinfo(arena+hblkhd)
             0 MiB available memory on the node where the printing process lives
------------------
     ethr =  1.21E-07,  avg # of iterations =  1.1

     total cpu time spent up to now is        6.9 secs

     WARNING: integrated charge=    16.00336048, expected=    16.00000000

     total energy              =     -73.77286639 Ry
     estimated scf accuracy    <       0.00000931 Ry

     iteration # 12     ecut=    45.00 Ry     beta= 0.20
     Davidson diagonalization with overlap

---- Real-time Memory Report at c_bands before calling an iterative solver
             0 MiB given to the printing process from OS
             0 MiB allocation reported by mallinfo(arena+hblkhd)
             0 MiB available memory on the node where the printing process lives
------------------
     ethr =  5.82E-08,  avg # of iterations =  2.3

     total cpu time spent up to now is        7.5 secs

     End of self-consistent calculation

          k = 0.0000 0.0000 0.0000 (  1375 PWs)   bands (ev):

   -14.1128 -14.0288  -2.5787  -1.7277   2.3910   2.3910   2.3943   2.3943
     8.8194  13.0341  13.7588  13.7590

     occupation numbers 
     1.0000   1.0000   1.0000   1.0000   1.0000   1.0000   1.0000   1.0000
     0.0000   0.0000   0.0000   0.0000

          k = 0.0000 0.0000 0.0527 (  1387 PWs)   bands (ev):

   -14.1073 -14.0346  -2.5277  -1.7921   2.3911   2.3911   2.3941   2.3941
     9.0225  12.5524  13.7594  13.7611

     occupation numbers 
     1.0000   1.0000   1.0000   1.0000   1.0000   1.0000   1.0000   1.0000
     0.0000   0.0000   0.0000   0.0000

          k = 0.0000 0.0000 0.1054 (  1376 PWs)   bands (ev):

   -14.0921 -14.0501  -2.3847  -1.9615   2.3918   2.3918   2.3935   2.3935
     9.6027  11.5392  13.7618  13.7626

     occupation numbers 
     1.0000   1.0000   1.0000   1.0000   1.0000   1.0000   1.0000   1.0000
     0.0000   0.0000   0.0000   0.0000

          k = 0.0000 0.0000-0.1581 (  1364 PWs)   bands (ev):

   -14.0711 -14.0711  -2.1797  -2.1797   2.3926   2.3926   2.3926   2.3926
    10.4821  10.4822  13.7649  13.7649

     occupation numbers 
     1.0000   1.0000   1.0000   1.0000   1.0000   1.0000   1.0000   1.0000
     0.0000   0.0000   0.0000   0.0000

          k = 0.0000 0.0577 0.0000 (  1383 PWs)   bands (ev):

   -14.0536 -13.9700  -2.5071  -1.6584   2.1481   2.1529   2.2632   2.2675
     8.8950  13.1010  13.7866  13.8061

     occupation numbers 
     1.0000   1.0000   1.0000   1.0000   1.0000   1.0000   1.0000   1.0000
     0.0000   0.0000   0.0000   0.0000

          k = 0.0000 0.0577 0.0527 (  1384 PWs)   bands (ev):

   -14.0481 -13.9757  -2.4562  -1.7226   2.1484   2.1526   2.2635   2.2672
     9.0977  12.6196  13.7902  13.8051

     occupation numbers 
     1.0000   1.0000   1.0000   1.0000   1.0000   1.0000   1.0000   1.0000
     0.0000   0.0000   0.0000   0.0000

          k = 0.0000 0.0577 0.1054 (  1379 PWs)   bands (ev):

   -14.0330 -13.9912  -2.3136  -1.8916   2.1493   2.1517   2.2643   2.2665
     9.6767  11.6088  13.7946  13.8025

     occupation numbers 
     1.0000   1.0000   1.0000   1.0000   1.0000   1.0000   1.0000   1.0000
     0.0000   0.0000   0.0000   0.0000

          k = 0.0000 0.0577-0.1581 (  1366 PWs)   bands (ev):

   -14.0121 -14.0121  -2.1091  -2.1091   2.1506   2.1506   2.2654   2.2654
    10.5542  10.5542  13.7987  13.7988

     occupation numbers 
     1.0000   1.0000   1.0000   1.0000   1.0000   1.0000   1.0000   1.0000
     0.0000   0.0000   0.0000   0.0000

          k = 0.0000 0.1155 0.0000 (  1403 PWs)   bands (ev):

   -13.8763 -13.7937  -2.2928  -1.4515   1.4712   1.4794   1.9168   1.9229
     9.1219  13.3008  13.8187  13.8567

     occupation numbers 
     1.0000   1.0000   1.0000   1.0000   1.0000   1.0000   1.0000   1.0000
     0.0000   0.0000   0.0000   0.0000

          k = 0.0000 0.1155 0.0527 (  1398 PWs)   bands (ev):

   -13.8709 -13.7993  -2.2424  -1.5150   1.4718   1.4789   1.9172   1.9225
     9.3233  12.8199  13.8297  13.8553

     occupation numbers 
     1.0000   1.0000   1.0000   1.0000   1.0000   1.0000   1.0000   1.0000
     0.0000   0.0000   0.0000   0.0000

          k = 0.0000 0.1155 0.1054 (  1394 PWs)   bands (ev):

   -13.8560 -13.8147  -2.1009  -1.6824   1.4733   1.4773   1.9184   1.9214
     9.8986  11.8171  13.8385  13.8513

     occupation numbers 
     1.0000   1.0000   1.0000   1.0000   1.0000   1.0000   1.0000   1.0000
     0.0000   0.0000   0.0000   0.0000

          k = 0.0000 0.1155-0.1581 (  1382 PWs)   bands (ev):

   -13.8354 -13.8354  -1.8981  -1.8981   1.4753   1.4753   1.9199   1.9199
    10.7703  10.7703  13.8453  13.8453

     occupation numbers 
     1.0000   1.0000   1.0000   1.0000   1.0000   1.0000   1.0000   1.0000
     0.0000   0.0000   0.0000   0.0000

          k = 0.0000 0.1732 0.0000 (  1409 PWs)   bands (ev):

   -13.5815 -13.5007  -1.9378  -1.1090   0.4774   0.4899   1.4347   1.4424
     9.5004  13.6226  13.7734  13.8348

     occupation numbers 
     1.0000   1.0000   1.0000   1.0000   1.0000   1.0000   1.0000   1.0000
     0.0000   0.0000   0.0000   0.0000

          k = 0.0000 0.1732 0.0527 (  1402 PWs)   bands (ev):

   -13.5762 -13.5062  -1.8880  -1.1715   0.4783   0.4891   1.4353   1.4419
     9.6995  13.1426  13.7971  13.8337

     occupation numbers 
     1.0000   1.0000   1.0000   1.0000   1.0000   1.0000   1.0000   1.0000
     0.0000   0.0000   0.0000   0.0000

          k = 0.0000 0.1732 0.1054 (  1404 PWs)   bands (ev):

   -13.5616 -13.5212  -1.7484  -1.3362   0.4805   0.4868   1.4366   1.4405
    10.2680  12.1600  13.8077  13.8272

     occupation numbers 
     1.0000   1.0000   1.0000   1.0000   1.0000   1.0000   1.0000   1.0000
     0.0000   0.0000   0.0000   0.0000

          k = 0.0000 0.1732-0.1581 (  1392 PWs)   bands (ev):

   -13.5415 -13.5415  -1.5486  -1.5486   0.4837   0.4837   1.4386   1.4386
    11.1288  11.1288  13.8177  13.8177

     occupation numbers 
     1.0000   1.0000   1.0000   1.0000   1.0000   1.0000   1.0000   1.0000
     0.0000   0.0000   0.0000   0.0000

          k = 0.0000 0.2309 0.0000 (  1395 PWs)   bands (ev):

   -13.1706 -13.0921  -1.4455  -0.7128  -0.6952  -0.6354   0.9009   0.9097
    10.0298  13.6341  13.7173  13.8153

     occupation numbers 
     1.0000   1.0000   1.0000   1.0000   1.0000   1.0000   1.0000   1.0000
     0.0000   0.0000   0.0000   0.0000

          k = 0.0000 0.2309 0.0527 (  1401 PWs)   bands (ev):

   -13.1654 -13.0975  -1.3967  -0.7119  -0.6964  -0.6960   0.9015   0.9092
    10.2250  13.4727  13.6865  13.7273

     occupation numbers 
     1.0000   1.0000   1.0000   1.0000   1.0000   1.0000   1.0000   1.0000
     0.0000   0.0000   0.0000   0.0000

          k = 0.0000 0.2309 0.1054 (  1407 PWs)   bands (ev):

   -13.1513 -13.1121  -1.2601  -0.8571  -0.7084  -0.6997   0.9031   0.9075
    10.7819  12.6145  13.6776  13.7070

     occupation numbers 
     1.0000   1.0000   1.0000   1.0000   1.0000   1.0000   1.0000   1.0000
     0.0000   0.0000   0.0000   0.0000

          k = 0.0000 0.2309-0.1581 (  1404 PWs)   bands (ev):

   -13.1318 -13.1318  -1.0645  -1.0645  -0.7040  -0.7040   0.9053   0.9053
    11.6220  11.6220  13.6897  13.6899

     occupation numbers 
     1.0000   1.0000   1.0000   1.0000   1.0000   1.0000   1.0000   1.0000
     0.0000   0.0000   0.0000   0.0000

          k = 0.0000 0.2887 0.0000 (  1407 PWs)   bands (ev):

   -12.6453 -12.5700  -2.0050  -1.9818  -0.8222  -0.0382   0.3791   0.3888
    10.7083  12.5527  12.7665  13.4384

     occupation numbers 
     1.0000   1.0000   1.0000   1.0000   1.0000   1.0000   1.0000   1.0000
     0.0000   0.0000   0.0000   0.0000

          k = 0.0000 0.2887 0.0527 (  1405 PWs)   bands (ev):

   -12.6404 -12.5751  -2.0035  -1.9834  -0.7748  -0.0969   0.3797   0.3881
    10.8954  12.5695  12.7421  13.4305

     occupation numbers 
     1.0000   1.0000   1.0000   1.0000   1.0000   1.0000   1.0000   1.0000
     0.0000   0.0000   0.0000   0.0000

          k = 0.0000 0.2887 0.1054 (  1407 PWs)   bands (ev):

   -12.6268 -12.5891  -1.9992  -1.9876  -0.6422  -0.2520   0.3815   0.3864
    11.4232  12.5833  12.6851  13.2692

     occupation numbers 
     1.0000   1.0000   1.0000   1.0000   1.0000   1.0000   1.0000   1.0000
     0.0000   0.0000   0.0000   0.0000

          k = 0.0000 0.2887-0.1581 (  1410 PWs)   bands (ev):

   -12.6080 -12.6080  -1.9935  -1.9935  -0.4527  -0.4527   0.3839   0.3839
    12.1631  12.1631  12.7864  12.7864

     occupation numbers 
     1.0000   1.0000   1.0000   1.0000   1.0000   1.0000   1.0000   1.0000
     0.0000   0.0000   0.0000   0.0000

          k = 0.0000 0.3464 0.0000 (  1421 PWs)   bands (ev):

   -12.0087 -11.9372  -3.3318  -3.3030  -0.0877  -0.0785  -0.0774   0.6691
    11.1338  11.4325  11.5313  13.2279

     occupation numbers 
     1.0000   1.0000   1.0000   1.0000   1.0000   1.0000   1.0000   1.0000
     0.0000   0.0000   0.0000   0.0000

          k = 0.0000 0.3464 0.0527 (  1403 PWs)   bands (ev):

   -12.0040 -11.9420  -3.3299  -3.3049  -0.0870  -0.0780  -0.0331   0.6134
    11.1347  11.4002  11.7437  13.2296

     occupation numbers 
     1.0000   1.0000   1.0000   1.0000   1.0000   1.0000   1.0000   1.0000
     0.0000   0.0000   0.0000   0.0000

          k = 0.0000 0.3464 0.1054 (  1404 PWs)   bands (ev):

   -11.9911 -11.9553  -3.3246  -3.3102  -0.0851  -0.0799   0.0938   0.4661
    11.1729  11.3329  12.2861  13.2211

     occupation numbers 
     1.0000   1.0000   1.0000   1.0000   1.0000   1.0000   1.0000   1.0000
     0.0000   0.0000   0.0000   0.0000

          k = 0.0000 0.3464-0.1581 (  1414 PWs)   bands (ev):

   -11.9733 -11.9733  -3.3174  -3.3174  -0.0825  -0.0825   0.2749   0.2749
    11.2482  11.2482  12.9966  12.9967

     occupation numbers 
     1.0000   1.0000   1.0000   1.0000   1.0000   1.0000   1.0000   1.0000
     0.0000   0.0000   0.0000   0.0000

          k = 0.0000 0.4041 0.0000 (  1414 PWs)   bands (ev):

   -11.2654 -11.1982  -4.6460  -4.6115  -0.4719  -0.4611   0.7649   1.4596
     9.7169  10.0879  12.4738  13.0429

     occupation numbers 
     1.0000   1.0000   1.0000   1.0000   1.0000   1.0000   1.0000   1.0000
     0.0000   0.0000   0.0000   0.0000

          k = 0.0000 0.4041 0.0527 (  1416 PWs)   bands (ev):

   -11.2610 -11.2028  -4.6437  -4.6138  -0.4712  -0.4619   0.8075   1.4084
     9.7356  10.0577  12.6410  13.0489

     occupation numbers 
     1.0000   1.0000   1.0000   1.0000   1.0000   1.0000   1.0000   1.0000
     0.0000   0.0000   0.0000   0.0000

          k = 0.0000 0.4041 0.1054 (  1410 PWs)   bands (ev):

   -11.2489 -11.2152  -4.6374  -4.6201  -0.4692  -0.4638   0.9264   1.2725
     9.7923   9.9791  12.9672  13.0617

     occupation numbers 
     1.0000   1.0000   1.0000   1.0000   1.0000   1.0000   1.0000   1.0000
     0.0000   0.0000   0.0000   0.0000

          k = 0.0000 0.4041-0.1581 (  1410 PWs)   bands (ev):

   -11.2321 -11.2321  -4.6288  -4.6288  -0.4665  -0.4665   1.0952   1.0952
     9.8805   9.8805  13.0542  13.0542

     occupation numbers 
     1.0000   1.0000   1.0000   1.0000   1.0000   1.0000   1.0000   1.0000
     0.0000   0.0000   0.0000   0.0000

          k = 0.0000 0.4619 0.0000 (  1410 PWs)   bands (ev):

   -10.4247 -10.3627  -5.9105  -5.8708  -0.7563  -0.7453   1.6640   2.2732
     8.4064   8.8225  12.8735  12.9714

     occupation numbers 
     1.0000   1.0000   1.0000   1.0000   1.0000   1.0000   1.0000   1.0000
     0.0000   0.0000   0.0000   0.0000

          k = 0.0000 0.4619 0.0527 (  1418 PWs)   bands (ev):

   -10.4206 -10.3669  -5.9079  -5.8734  -0.7556  -0.7460   1.7020   2.2293
     8.4280   8.7886  12.8827  12.9685

     occupation numbers 
     1.0000   1.0000   1.0000   1.0000   1.0000   1.0000   1.0000   1.0000
     0.0000   0.0000   0.0000   0.0000

          k = 0.0000 0.4619 0.1054 (  1412 PWs)   bands (ev):

   -10.4095 -10.3784  -5.9006  -5.8808  -0.7536  -0.7480   1.8078   2.1118
     8.4921   8.7007  12.9047  12.9551

     occupation numbers 
     1.0000   1.0000   1.0000   1.0000   1.0000   1.0000   1.0000   1.0000
     0.0000   0.0000   0.0000   0.0000

          k = 0.0000 0.4619-0.1581 (  1402 PWs)   bands (ev):

   -10.3940 -10.3940  -5.8907  -5.8907  -0.7508  -0.7508   1.9569   1.9569
     8.5906   8.5906  12.9314  12.9314

     occupation numbers 
     1.0000   1.0000   1.0000   1.0000   1.0000   1.0000   1.0000   1.0000
     0.0000   0.0000   0.0000   0.0000

          k = 0.0000 0.5196 0.0000 (  1426 PWs)   bands (ev):

    -9.5172  -9.4626  -7.0762  -7.0336  -0.9307  -0.9195   2.5028   2.9541
     7.3839   7.7845  12.7879  12.9031

     occupation numbers 
     1.0000   1.0000   1.0000   1.0000   1.0000   1.0000   1.0000   1.0000
     0.0000   0.0000   0.0000   0.0000

          k = 0.0000 0.5196 0.0527 (  1416 PWs)   bands (ev):

    -9.5135  -9.4662  -7.0734  -7.0365  -0.9299  -0.9202   2.5326   2.9237
     7.4022   7.7494  12.7957  12.8954

     occupation numbers 
     1.0000   1.0000   1.0000   1.0000   1.0000   1.0000   1.0000   1.0000
     0.0000   0.0000   0.0000   0.0000

          k = 0.0000 0.5196 0.1054 (  1417 PWs)   bands (ev):

    -9.5036  -9.4763  -7.0656  -7.0444  -0.9279  -0.9223   2.6145   2.8405
     7.4588   7.6596  12.8167  12.8743

     occupation numbers 
     1.0000   1.0000   1.0000   1.0000   1.0000   1.0000   1.0000   1.0000
     0.0000   0.0000   0.0000   0.0000

          k = 0.0000 0.5196-0.1581 (  1404 PWs)   bands (ev):

    -9.4900  -9.4900  -7.0551  -7.0551  -0.9251  -0.9251   2.7272   2.7272
     7.5510   7.5510  12.8455  12.8455

     occupation numbers 
     1.0000   1.0000   1.0000   1.0000   1.0000   1.0000   1.0000   1.0000
     0.0000   0.0000   0.0000   0.0000

          k = 0.0000-0.5774 0.0000 (  1424 PWs)   bands (ev):

    -8.8530  -8.8239  -7.8054  -7.7827  -0.9894  -0.9781   2.9331   3.2082
     6.9784   7.3217  12.7569  12.8755

     occupation numbers 
     1.0000   1.0000   1.0000   1.0000   1.0000   1.0000   1.0000   1.0000
     0.0000   0.0000   0.0000   0.0000

          k = 0.0000-0.5774 0.0527 (  1420 PWs)   bands (ev):

    -8.8509  -8.8258  -7.8041  -7.7844  -0.9886  -0.9788   2.9534   3.1922
     6.9905   7.2880  12.7647  12.8674

     occupation numbers 
     1.0000   1.0000   1.0000   1.0000   1.0000   1.0000   1.0000   1.0000
     0.0000   0.0000   0.0000   0.0000

          k = 0.0000-0.5774 0.1054 (  1414 PWs)   bands (ev):

    -8.8454  -8.8310  -7.8003  -7.7889  -0.9865  -0.9809   3.0079   3.1463
     7.0318   7.2038  12.7862  12.8454

     occupation numbers 
     1.0000   1.0000   1.0000   1.0000   1.0000   1.0000   1.0000   1.0000
     0.0000   0.0000   0.0000   0.0000

          k = 0.0000-0.5774-0.1581 (  1420 PWs)   bands (ev):

    -8.8381  -8.8381  -7.7947  -7.7947  -0.9837  -0.9837   3.0792   3.0792
     7.1072   7.1072  12.8156  12.8156

     occupation numbers 
     1.0000   1.0000   1.0000   1.0000   1.0000   1.0000   1.0000   1.0000
     0.0000   0.0000   0.0000   0.0000

          k = 0.0500 0.0866 0.0000 (  1397 PWs)   bands (ev):

   -13.9354 -13.8524  -2.3641  -1.5203   1.7076   1.7125   2.0087   2.0126
     9.0463  13.2347  13.8677  13.8990

     occupation numbers 
     1.0000   1.0000   1.0000   1.0000   1.0000   1.0000   1.0000   1.0000
     0.0000   0.0000   0.0000   0.0000

          k = 0.0500 0.0866 0.0527 (  1390 PWs)   bands (ev):

   -13.9299 -13.8581  -2.3135  -1.5841   1.7080   1.7122   2.0090   2.0123
     9.2481  12.7537  13.8763  13.8978

     occupation numbers 
     1.0000   1.0000   1.0000   1.0000   1.0000   1.0000   1.0000   1.0000
     0.0000   0.0000   0.0000   0.0000

          k = 0.0500 0.0866 0.1054 (  1383 PWs)   bands (ev):

   -13.9149 -13.8734  -2.1717  -1.7520   1.7089   1.7113   2.0097   2.0116
     9.8247  11.7480  13.8839  13.8946

     occupation numbers 
     1.0000   1.0000   1.0000   1.0000   1.0000   1.0000   1.0000   1.0000
     0.0000   0.0000   0.0000   0.0000

          k = 0.0500 0.0866-0.1581 (  1392 PWs)   bands (ev):

   -13.8943 -13.8943  -1.9683  -1.9683   1.7100   1.7100   2.0106   2.0106
    10.6984  10.6984  13.8895  13.8897

     occupation numbers 
     1.0000   1.0000   1.0000   1.0000   1.0000   1.0000   1.0000   1.0000
     0.0000   0.0000   0.0000   0.0000

          k = 0.0500 0.1443 0.0000 (  1396 PWs)   bands (ev):

   -13.6993 -13.6178  -2.0794  -1.2456   0.9103   0.9188   1.5558   1.5616
     9.3492  13.4980  13.9566  14.0079

     occupation numbers 
     1.0000   1.0000   1.0000   1.0000   1.0000   1.0000   1.0000   1.0000
     0.0000   0.0000   0.0000   0.0000

          k = 0.0500 0.1443 0.0527 (  1402 PWs)   bands (ev):

   -13.6940 -13.6234  -2.0294  -1.3085   0.9109   0.9182   1.5562   1.5612
     9.5493  13.0188  13.9734  14.0062

     occupation numbers 
     1.0000   1.0000   1.0000   1.0000   1.0000   1.0000   1.0000   1.0000
     0.0000   0.0000   0.0000   0.0000

          k = 0.0500 0.1443 0.1054 (  1398 PWs)   bands (ev):

   -13.6793 -13.6385  -1.8891  -1.4743   0.9124   0.9166   1.5572   1.5601
    10.1208  12.0250  13.9852  14.0010

     occupation numbers 
     1.0000   1.0000   1.0000   1.0000   1.0000   1.0000   1.0000   1.0000
     0.0000   0.0000   0.0000   0.0000

          k = 0.0500 0.1443-0.1581 (  1400 PWs)   bands (ev):

   -13.6590 -13.6590  -1.6880  -1.6880   0.9145   0.9145   1.5587   1.5587
    10.9863  10.9863  13.9937  13.9937

     occupation numbers 
     1.0000   1.0000   1.0000   1.0000   1.0000   1.0000   1.0000   1.0000
     0.0000   0.0000   0.0000   0.0000

          k = 0.0500 0.2021 0.0000 (  1404 PWs)   bands (ev):

   -13.3465 -13.2670  -1.6556  -0.8373  -0.1487  -0.1349   1.0130   1.0212
     9.8037  13.8601  13.9257  13.9994

     occupation numbers 
     1.0000   1.0000   1.0000   1.0000   1.0000   1.0000   1.0000   1.0000
     0.0000   0.0000   0.0000   0.0000

          k = 0.0500 0.2021 0.0527 (  1407 PWs)   bands (ev):

   -13.3413 -13.2724  -1.6064  -0.8989  -0.1478  -0.1359   1.0136   1.0206
    10.0008  13.3926  13.9550  13.9982

     occupation numbers 
     1.0000   1.0000   1.0000   1.0000   1.0000   1.0000   1.0000   1.0000
     0.0000   0.0000   0.0000   0.0000

          k = 0.0500 0.2021 0.1054 (  1403 PWs)   bands (ev):

   -13.3269 -13.2872  -1.4685  -1.0614  -0.1453  -0.1384   1.0151   1.0192
    10.5636  12.4320  13.9652  13.9889

     occupation numbers 
     1.0000   1.0000   1.0000   1.0000   1.0000   1.0000   1.0000   1.0000
     0.0000   0.0000   0.0000   0.0000

          k = 0.0500 0.2021-0.1581 (  1404 PWs)   bands (ev):

   -13.3071 -13.3071  -1.2710  -1.2710  -0.1418  -0.1418   1.0171   1.0171
    11.4148  11.4148  13.9764  13.9765

     occupation numbers 
     1.0000   1.0000   1.0000   1.0000   1.0000   1.0000   1.0000   1.0000
     0.0000   0.0000   0.0000   0.0000

          k = 0.0500 0.2598 0.0000 (  1412 PWs)   bands (ev):

   -12.8784 -12.8017  -1.3672  -1.3477  -1.0974  -0.3013   0.4612   0.4710
    10.4084  13.1610  13.3226  13.7849

     occupation numbers 
     1.0000   1.0000   1.0000   1.0000   1.0000   1.0000   1.0000   1.0000
     0.0000   0.0000   0.0000   0.0000

          k = 0.0500 0.2598 0.0527 (  1403 PWs)   bands (ev):

   -12.8733 -12.8069  -1.3659  -1.3490  -1.0494  -0.3611   0.4619   0.4704
    10.6004  13.1686  13.2877  13.7489

     occupation numbers 
     1.0000   1.0000   1.0000   1.0000   1.0000   1.0000   1.0000   1.0000
     0.0000   0.0000   0.0000   0.0000

          k = 0.0500 0.2598 0.1054 (  1406 PWs)   bands (ev):

   -12.8595 -12.8211  -1.3624  -1.3526  -0.9149  -0.5188   0.4637   0.4686
    11.1471  12.8755  13.2314  13.4027

     occupation numbers 
     1.0000   1.0000   1.0000   1.0000   1.0000   1.0000   1.0000   1.0000
     0.0000   0.0000   0.0000   0.0000

          k = 0.0500 0.2598-0.1581 (  1396 PWs)   bands (ev):

   -12.8404 -12.8404  -1.3575  -1.3575  -0.7226  -0.7226   0.4662   0.4662
    11.9658  11.9659  13.2869  13.2869

     occupation numbers 
     1.0000   1.0000   1.0000   1.0000   1.0000   1.0000   1.0000   1.0000
     0.0000   0.0000   0.0000   0.0000

          k = 0.0500 0.3175 0.0000 (  1407 PWs)   bands (ev):

   -12.2974 -12.2241  -2.6624  -2.6370  -0.4128  -0.0480  -0.0371   0.3524
    11.1608  11.7970  12.0442  13.5888

     occupation numbers 
     1.0000   1.0000   1.0000   1.0000   1.0000   1.0000   1.0000   1.0000
     0.0000   0.0000   0.0000   0.0000

          k = 0.0500 0.3175 0.0527 (  1409 PWs)   bands (ev):

   -12.2926 -12.2291  -2.6608  -2.6387  -0.3665  -0.0473  -0.0378   0.2953
    11.3310  11.8294  12.0252  13.5853

     occupation numbers 
     1.0000   1.0000   1.0000   1.0000   1.0000   1.0000   1.0000   1.0000
     0.0000   0.0000   0.0000   0.0000

          k = 0.0500 0.3175 0.1054 (  1410 PWs)   bands (ev):

   -12.2793 -12.2427  -2.6561  -2.6434  -0.2368  -0.0453  -0.0398   0.1442
    11.7004  11.9329  12.0756  13.4921

     occupation numbers 
     1.0000   1.0000   1.0000   1.0000   1.0000   1.0000   1.0000   1.0000
     0.0000   0.0000   0.0000   0.0000

          k = 0.0500 0.3175-0.1581 (  1410 PWs)   bands (ev):

   -12.2611 -12.2611  -2.6498  -2.6498  -0.0517  -0.0517  -0.0425  -0.0425
    11.8620  11.8620  12.7580  12.7580

     occupation numbers 
     1.0000   1.0000   1.0000   1.0000   1.0000   1.0000   1.0000   1.0000
     0.0000   0.0000   0.0000   0.0000

          k = 0.0500 0.3753 0.0000 (  1413 PWs)   bands (ev):

   -11.6073 -11.5381  -3.9745  -3.9432  -0.4824  -0.4707   0.3836   1.1054
    10.3869  10.7121  12.0540  13.3918

     occupation numbers 
     1.0000   1.0000   1.0000   1.0000   1.0000   1.0000   1.0000   1.0000
     0.0000   0.0000   0.0000   0.0000

          k = 0.0500 0.3753 0.0527 (  1411 PWs)   bands (ev):

   -11.6028 -11.5428  -3.9724  -3.9453  -0.4816  -0.4715   0.4276   1.0519
    10.4018  10.6851  12.2419  13.3953

     occupation numbers 
     1.0000   1.0000   1.0000   1.0000   1.0000   1.0000   1.0000   1.0000
     0.0000   0.0000   0.0000   0.0000

          k = 0.0500 0.3753 0.1054 (  1410 PWs)   bands (ev):

   -11.5903 -11.5556  -3.9667  -3.9510  -0.4795  -0.4736   0.5506   0.9101
    10.4501  10.6155  12.7568  13.3974

     occupation numbers 
     1.0000   1.0000   1.0000   1.0000   1.0000   1.0000   1.0000   1.0000
     0.0000   0.0000   0.0000   0.0000

          k = 0.0500 0.3753-0.1581 (  1414 PWs)   bands (ev):

   -11.5730 -11.5730  -3.9589  -3.9589  -0.4765  -0.4765   0.7257   0.7257
    10.5280  10.5280  13.3134  13.3134

     occupation numbers 
     1.0000   1.0000   1.0000   1.0000   1.0000   1.0000   1.0000   1.0000
     0.0000   0.0000   0.0000   0.0000

          k = 0.0500 0.4330 0.0000 (  1417 PWs)   bands (ev):

   -10.8144 -10.7500  -5.2596  -5.2227  -0.8218  -0.8096   1.2626   1.9187
     9.0216   9.4084  13.0153  13.2360

     occupation numbers 
     1.0000   1.0000   1.0000   1.0000   1.0000   1.0000   1.0000   1.0000
     0.0000   0.0000   0.0000   0.0000

          k = 0.0500 0.4330 0.0527 (  1414 PWs)   bands (ev):

   -10.8102 -10.7543  -5.2571  -5.2252  -0.8210  -0.8104   1.3031   1.8707
     9.0421   9.3776  13.1188  13.2469

     occupation numbers 
     1.0000   1.0000   1.0000   1.0000   1.0000   1.0000   1.0000   1.0000
     0.0000   0.0000   0.0000   0.0000

          k = 0.0500 0.4330 0.1054 (  1415 PWs)   bands (ev):

   -10.7986 -10.7663  -5.2504  -5.2320  -0.8187  -0.8126   1.4160   1.7431
     9.1028   9.2969  13.2203  13.2653

     occupation numbers 
     1.0000   1.0000   1.0000   1.0000   1.0000   1.0000   1.0000   1.0000
     0.0000   0.0000   0.0000   0.0000

          k = 0.0500 0.4330-0.1581 (  1412 PWs)   bands (ev):

   -10.7825 -10.7825  -5.2412  -5.2412  -0.8157  -0.8157   1.5759   1.5759
     9.1949   9.1949  13.2535  13.2535

     occupation numbers 
     1.0000   1.0000   1.0000   1.0000   1.0000   1.0000   1.0000   1.0000
     0.0000   0.0000   0.0000   0.0000

          k = 0.0500 0.4907 0.0000 (  1422 PWs)   bands (ev):

    -9.9344  -9.8757  -6.4783  -6.4368  -1.0539  -1.0414   2.1550   2.6970
     7.8311   8.2387  13.0886  13.2019

     occupation numbers 
     1.0000   1.0000   1.0000   1.0000   1.0000   1.0000   1.0000   1.0000
     0.0000   0.0000   0.0000   0.0000

          k = 0.0500 0.4907 0.0527 (  1423 PWs)   bands (ev):

    -9.9305  -9.8797  -6.4755  -6.4396  -1.0531  -1.0422   2.1896   2.6589
     7.8517   8.2050  13.0968  13.1951

     occupation numbers 
     1.0000   1.0000   1.0000   1.0000   1.0000   1.0000   1.0000   1.0000
     0.0000   0.0000   0.0000   0.0000

          k = 0.0500 0.4907 0.1054 (  1416 PWs)   bands (ev):

    -9.9199  -9.8905  -6.4680  -6.4473  -1.0508  -1.0445   2.2852   2.5560
     7.9131   8.1175  13.1186  13.1755

     occupation numbers 
     1.0000   1.0000   1.0000   1.0000   1.0000   1.0000   1.0000   1.0000
     0.0000   0.0000   0.0000   0.0000

          k = 0.0500 0.4907-0.1581 (  1418 PWs)   bands (ev):

    -9.9052  -9.9052  -6.4577  -6.4577  -1.0476  -1.0476   2.4187   2.4187
     8.0089   8.0089  13.1474  13.1474

     occupation numbers 
     1.0000   1.0000   1.0000   1.0000   1.0000   1.0000   1.0000   1.0000
     0.0000   0.0000   0.0000   0.0000

          k = 0.0500 0.5485 0.0000 (  1416 PWs)   bands (ev):

    -9.0481  -9.0024  -7.5291  -7.4912  -1.1715  -1.1589   2.8620   3.2017
     7.0749   7.4274  13.0282  13.1509

     occupation numbers 
     1.0000   1.0000   1.0000   1.0000   1.0000   1.0000   1.0000   1.0000
     0.0000   0.0000   0.0000   0.0000

          k = 0.0500 0.5485 0.0527 (  1421 PWs)   bands (ev):

    -9.0450  -9.0055  -7.5266  -7.4938  -1.1707  -1.1597   2.8858   3.1805
     7.0888   7.3943  13.0363  13.1425

     occupation numbers 
     1.0000   1.0000   1.0000   1.0000   1.0000   1.0000   1.0000   1.0000
     0.0000   0.0000   0.0000   0.0000

          k = 0.0500 0.5485 0.1054 (  1418 PWs)   bands (ev):

    -9.0367  -9.0139  -7.5198  -7.5009  -1.1684  -1.1621   2.9505   3.1211
     7.1340   7.3108  13.0585  13.1198

     occupation numbers 
     1.0000   1.0000   1.0000   1.0000   1.0000   1.0000   1.0000   1.0000
     0.0000   0.0000   0.0000   0.0000

          k = 0.0500 0.5485-0.1581 (  1414 PWs)   bands (ev):

    -9.0253  -9.0253  -7.5104  -7.5104  -1.1652  -1.1652   3.0371   3.0371
     7.2130   7.2130  13.0890  13.0890

     occupation numbers 
     1.0000   1.0000   1.0000   1.0000   1.0000   1.0000   1.0000   1.0000
     0.0000   0.0000   0.0000   0.0000

          k = 0.1000 0.1732 0.0000 (  1401 PWs)   bands (ev):

   -13.4052 -13.3254  -1.7259  -0.9049   0.1217   0.1296   0.9715   0.9768
     9.7286  13.8210  14.2677  14.3357

     occupation numbers 
     1.0000   1.0000   1.0000   1.0000   1.0000   1.0000   1.0000   1.0000
     0.0000   0.0000   0.0000   0.0000

          k = 0.1000 0.1732 0.0527 (  1410 PWs)   bands (ev):

   -13.3999 -13.3308  -1.6765  -0.9667   0.1222   0.1291   0.9718   0.9765
     9.9263  13.3477  14.2905  14.3322

     occupation numbers 
     1.0000   1.0000   1.0000   1.0000   1.0000   1.0000   1.0000   1.0000
     0.0000   0.0000   0.0000   0.0000

          k = 0.1000 0.1732 0.1054 (  1405 PWs)   bands (ev):

   -13.3856 -13.3456  -1.5382  -1.1298   0.1237   0.1276   0.9728   0.9755
    10.4910  12.3701  14.3039  14.3238

     occupation numbers 
     1.0000   1.0000   1.0000   1.0000   1.0000   1.0000   1.0000   1.0000
     0.0000   0.0000   0.0000   0.0000

          k = 0.1000 0.1732-0.1581 (  1402 PWs)   bands (ev):

   -13.3657 -13.3657  -1.3401  -1.3401   0.1257   0.1257   0.9741   0.9741
    11.3459  11.3459  14.3133  14.3136

     occupation numbers 
     1.0000   1.0000   1.0000   1.0000   1.0000   1.0000   1.0000   1.0000
     0.0000   0.0000   0.0000   0.0000

          k = 0.1000 0.2309 0.0000 (  1409 PWs)   bands (ev):

   -12.9952 -12.9178  -1.2357  -0.8796  -0.8670  -0.4337   0.3242   0.3324
    10.2591  13.5232  13.6543  14.2763

     occupation numbers 
     1.0000   1.0000   1.0000   1.0000   1.0000   1.0000   1.0000   1.0000
     0.0000   0.0000   0.0000   0.0000

          k = 0.1000 0.2309 0.0527 (  1409 PWs)   bands (ev):

   -12.9901 -12.9231  -1.1874  -0.8788  -0.8679  -0.4939   0.3247   0.3318
    10.4531  13.5309  13.6178  13.8367

     occupation numbers 
[...]
     1.0000   1.0000   1.0000   1.0000   1.0000   1.0000   1.0000   1.0000
     0.0000   0.0000   0.0000   0.0000

          k = 0.2000 0.5196 0.1045 (  1431 PWs)   bands (ev):

    -8.9539  -8.9305  -6.6385  -6.6217  -3.4164  -3.4055   3.3524   3.5644
     7.0481   7.1648  15.7751  16.0290

     occupation numbers 
     1.0000   1.0000   1.0000   1.0000   1.0000   1.0000   1.0000   1.0000
     0.0000   0.0000   0.0000   0.0000

          k = 0.2000 0.5196-0.1568 (  1440 PWs)   bands (ev):

    -8.9423  -8.9423  -6.6301  -6.6301  -3.4109  -3.4109   3.4579   3.4579
     7.1034   7.1034  15.9234  15.9234

     occupation numbers 
     1.0000   1.0000   1.0000   1.0000   1.0000   1.0000   1.0000   1.0000
     0.0000   0.0000   0.0000   0.0000

          k = 0.2000 0.5774 0.0000 (  1447 PWs)   bands (ev):

    -8.3254  -8.3006  -7.3298  -7.3131  -3.4963  -3.4739   3.7226   3.9747
     6.6232   6.7298  16.0214  16.3066

     occupation numbers 
     1.0000   1.0000   1.0000   1.0000   1.0000   1.0000   1.0000   1.0000
     0.0000   0.0000   0.0000   0.0000

          k = 0.2000 0.5774 0.0523 (  1429 PWs)   bands (ev):

    -8.3236  -8.3022  -7.3288  -7.3143  -3.4949  -3.4754   3.7415   3.9603
     6.6242   6.7174  16.0290  16.2571

     occupation numbers 
     1.0000   1.0000   1.0000   1.0000   1.0000   1.0000   1.0000   1.0000
     0.0000   0.0000   0.0000   0.0000

          k = 0.2000 0.5774 0.1045 (  1429 PWs)   bands (ev):

    -8.3190  -8.3066  -7.3260  -7.3176  -3.4907  -3.4795   3.7919   3.9188
     6.6320   6.6867  16.0331  16.1313

     occupation numbers 
     1.0000   1.0000   1.0000   1.0000   1.0000   1.0000   1.0000   1.0000
     0.0000   0.0000   0.0000   0.0000

          k = 0.2000 0.5774-0.1568 (  1428 PWs)   bands (ev):

    -8.3127  -8.3127  -7.3219  -7.3219  -3.4851  -3.4851   3.8576   3.8576
     6.6536   6.6536  16.0481  16.0481

     occupation numbers 
     1.0000   1.0000   1.0000   1.0000   1.0000   1.0000   1.0000   1.0000
     0.0000   0.0000   0.0000   0.0000

          k = 0.2500 0.4330 0.0000 (  1429 PWs)   bands (ev):

    -9.9017  -9.8477  -5.1844  -5.1676  -3.6028  -3.5901   2.3475   2.9146
     8.0676   8.2770  14.3164  16.2212

     occupation numbers 
     1.0000   1.0000   1.0000   1.0000   1.0000   1.0000   1.0000   1.0000
     0.0000   0.0000   0.0000   0.0000

          k = 0.2500 0.4330 0.0523 (  1428 PWs)   bands (ev):

    -9.8981  -9.8514  -5.1832  -5.1687  -3.6020  -3.5910   2.3829   2.8737
     8.0816   8.2628  14.4360  16.0591

     occupation numbers 
     1.0000   1.0000   1.0000   1.0000   1.0000   1.0000   1.0000   1.0000
     0.0000   0.0000   0.0000   0.0000

          k = 0.2500 0.4330 0.1045 (  1428 PWs)   bands (ev):

    -9.8883  -9.8614  -5.1801  -5.1717  -3.5998  -3.5934   2.4812   2.7642
     8.1197   8.2242  14.7623  15.6773

     occupation numbers 
     1.0000   1.0000   1.0000   1.0000   1.0000   1.0000   1.0000   1.0000
     0.0000   0.0000   0.0000   0.0000

          k = 0.2500 0.4330-0.1568 (  1426 PWs)   bands (ev):

    -9.8749  -9.8749  -5.1759  -5.1759  -3.5966  -3.5966   2.6199   2.6199
     8.1719   8.1719  15.2109  15.2109

     occupation numbers 
     1.0000   1.0000   1.0000   1.0000   1.0000   1.0000   1.0000   1.0000
     0.0000   0.0000   0.0000   0.0000

          k = 0.2500 0.4907 0.0000 (  1429 PWs)   bands (ev):

    -9.0553  -9.0068  -6.0102  -5.9859  -4.1320  -4.1141   3.2469   3.7310
     7.1046   7.3275  15.4360  16.2796

     occupation numbers 
     1.0000   1.0000   1.0000   1.0000   1.0000   1.0000   1.0000   1.0000
     0.0000   0.0000   0.0000   0.0000

          k = 0.2500 0.4907 0.0523 (  1434 PWs)   bands (ev):

    -9.0521  -9.0100  -6.0085  -5.9876  -4.1308  -4.1153   3.2778   3.6968
     7.1189   7.3119  15.4739  16.1657

     occupation numbers 
     1.0000   1.0000   1.0000   1.0000   1.0000   1.0000   1.0000   1.0000
     0.0000   0.0000   0.0000   0.0000

          k = 0.2500 0.4907 0.1045 (  1430 PWs)   bands (ev):

    -9.0433  -9.0190  -6.0041  -5.9920  -4.1276  -4.1187   3.3630   3.6049
     7.1584   7.2697  15.5725  15.9367

     occupation numbers 
     1.0000   1.0000   1.0000   1.0000   1.0000   1.0000   1.0000   1.0000
     0.0000   0.0000   0.0000   0.0000

          k = 0.2500 0.4907-0.1568 (  1442 PWs)   bands (ev):

    -9.0312  -9.0312  -5.9981  -5.9981  -4.1232  -4.1232   3.4823   3.4823
     7.2133   7.2133  15.7251  15.7251

     occupation numbers 
     1.0000   1.0000   1.0000   1.0000   1.0000   1.0000   1.0000   1.0000
     0.0000   0.0000   0.0000   0.0000

          k = 0.2500 0.5485 0.0000 (  1431 PWs)   bands (ev):

    -8.2099  -8.1723  -6.8812  -6.8549  -4.3638  -4.3415   4.0374   4.3610
     6.3833   6.5292  16.3229  16.5908

     occupation numbers 
     1.0000   1.0000   1.0000   1.0000   1.0000   1.0000   1.0000   1.0000
     0.0000   0.0000   0.0000   0.0000

          k = 0.2500 0.5485 0.0523 (  1431 PWs)   bands (ev):

    -8.2074  -8.1748  -6.8795  -6.8567  -4.3623  -4.3430   4.0601   4.3408
     6.3896   6.5162  16.1870  16.2524

     occupation numbers 
     1.0000   1.0000   1.0000   1.0000   1.0000   1.0000   1.0000   1.0000
     0.0000   0.0000   0.0000   0.0000

          k = 0.2500 0.5485 0.1045 (  1436 PWs)   bands (ev):

    -8.2005  -8.1817  -6.8748  -6.8616  -4.3583  -4.3471   4.1216   4.2843
     6.4096   6.4829  15.9825  16.0139

     occupation numbers 
     1.0000   1.0000   1.0000   1.0000   1.0000   1.0000   1.0000   1.0000
     0.0000   0.0000   0.0000   0.0000

          k = 0.2500 0.5485-0.1568 (  1440 PWs)   bands (ev):

    -8.1912  -8.1912  -6.8683  -6.8683  -4.3527  -4.3527   4.2042   4.2042
     6.4429   6.4429  15.9161  15.9161

     occupation numbers 
     1.0000   1.0000   1.0000   1.0000   1.0000   1.0000   1.0000   1.0000
     0.0000   0.0000   0.0000   0.0000

          k = 0.3000 0.5196 0.0000 (  1425 PWs)   bands (ev):

    -8.2154  -8.1738  -6.5180  -6.4982  -4.8167  -4.8047   4.1369   4.5338
     6.2572   6.4882  16.1303  16.4791

     occupation numbers 
     1.0000   1.0000   1.0000   1.0000   1.0000   1.0000   1.0000   1.0001
     0.0000   0.0000   0.0000   0.0000

          k = 0.3000 0.5196 0.0523 (  1431 PWs)   bands (ev):

    -8.2127  -8.1766  -6.5167  -6.4995  -4.8160  -4.8056   4.1630   4.5069
     6.2718   6.4715  16.0301  16.0910

     occupation numbers 
     1.0000   1.0000   1.0000   1.0000   1.0000   1.0000   1.0000   1.0001
     0.0000   0.0000   0.0000   0.0000

          k = 0.3000 0.5196 0.1045 (  1443 PWs)   bands (ev):

    -8.2051  -8.1843  -6.5131  -6.5031  -4.8139  -4.8079   4.2348   4.4335
     6.3121   6.4269  15.8409  15.8554

     occupation numbers 
     1.0000   1.0000   1.0000   1.0000   1.0000   1.0000   1.0000   1.0000
     0.0000   0.0000   0.0000   0.0000

          k = 0.3000 0.5196-0.1568 (  1442 PWs)   bands (ev):

    -8.1947  -8.1947  -6.5081  -6.5081  -4.8110  -4.8110   4.3337   4.3337
     6.3684   6.3684  15.7680  15.7680

     occupation numbers 
     1.0000   1.0000   1.0000   1.0000   1.0000   1.0000   1.0000   1.0000
     0.0000   0.0000   0.0000   0.0000

          k = 0.3000 0.5774 0.0000 (  1435 PWs)   bands (ev):

    -7.5694  -7.5468  -7.0304  -7.0255  -5.0570  -5.0443   4.7769   5.0170
     5.7363   5.8926  16.1063  16.2193

     occupation numbers 
     1.0000   1.0000   1.0000   1.0000   1.0000   1.0000   1.0078   1.0687
     0.0360   0.0037   0.0000   0.0000

          k = 0.3000 0.5774 0.0523 (  1433 PWs)   bands (ev):

    -7.5678  -7.5482  -7.0302  -7.0259  -5.0562  -5.0452   4.7973   5.0063
     5.7415   5.8755  15.9881  16.0521

     occupation numbers 
     1.0000   1.0000   1.0000   1.0000   1.0000   1.0000   1.0101   1.0652
     0.0338   0.0049   0.0000   0.0000

          k = 0.3000 0.5774 0.1045 (  1441 PWs)   bands (ev):

    -7.5635  -7.5522  -7.0295  -7.0270  -5.0540  -5.0476   4.8505   4.9726
     5.7585   5.8341  15.8021  15.8196

     occupation numbers 
     1.0000   1.0000   1.0000   1.0000   1.0000   1.0000   1.0187   1.0537
     0.0271   0.0093   0.0000   0.0000

          k = 0.3000 0.5774-0.1568 (  1442 PWs)   bands (ev):

    -7.5578  -7.5578  -7.0284  -7.0284  -5.0509  -5.0509   4.9165   4.9165
     5.7901   5.7901  15.7266  15.7266

     occupation numbers 
     1.0000   1.0000   1.0000   1.0000   1.0000   1.0000   1.0353   1.0353
     0.0176   0.0176   0.0000   0.0000

     the Fermi energy is     5.4798 ev

     WARNING: integrated charge=    16.00333998, expected=    16.00000000

!    total energy              =     -73.77294070 Ry
     total all-electron energy =      -304.829332 Ry
     estimated scf accuracy    <          9.7E-11 Ry
     smearing contrib. (-TS)   =       0.00007262 Ry
     internal energy E=F+TS    =     -73.77301331 Ry

     The total energy is F=E-TS. E is the sum of the following terms:
     one-electron contribution =     -23.79297555 Ry
     hartree contribution      =      19.30469002 Ry
     xc contribution           =     -18.54802972 Ry
     ewald contribution        =     -26.06958967 Ry
     one-center paw contrib.   =     -24.66710839 Ry
      -> PAW hartree energy AE =       9.50682901 Ry
      -> PAW hartree energy PS =      -9.49821130 Ry
      -> PAW xc energy AE      =     -10.67757651 Ry
      -> PAW xc energy PS      =       4.50217129 Ry
      -> total E_H with PAW    =      19.31330773 Ry
      -> total E_XC with PAW   =     -24.72343494 Ry

     convergence has been achieved in  50 iterations

     Forces acting on atoms (cartesian axes, Ry/au):

     atom    1 type  1   force =     0.00000000    0.00000000    0.00000000
     atom    2 type  1   force =     0.00000000    0.00000000   -0.00000000
     atom    3 type  1   force =    -0.00000000    0.00000000    0.00000000
     atom    4 type  1   force =     0.00000000   -0.00000000   -0.00000000
     The non-local contrib.  to forces
     atom    1 type  1   force =     0.00000000   -0.00000000   -0.00000000
     atom    2 type  1   force =     0.00000000    0.00000000    0.00000000
     atom    3 type  1   force =    -0.00000000    0.00000000    0.00000000
     atom    4 type  1   force =     0.00000000    0.00000000    0.00000000
     The ionic contribution  to forces
     atom    1 type  1   force =    -0.00000009    0.00000005    0.00000000
     atom    2 type  1   force =     0.00000009   -0.00000005   -0.00000000
     atom    3 type  1   force =     0.00000009   -0.00000005    0.00000000
     atom    4 type  1   force =    -0.00000009    0.00000005   -0.00000000
     The local contribution  to forces
     atom    1 type  1   force =    -0.00000000   -0.00000000   -0.00000000
     atom    2 type  1   force =     0.00000000    0.00000000   -0.00000000
     atom    3 type  1   force =     0.00000006   -0.00000004   -0.00000000
     atom    4 type  1   force =    -0.00000006    0.00000004   -0.00000000
     The core correction contribution to forces
     atom    1 type  1   force =    -0.00000000    0.00000000   -0.00000000
     atom    2 type  1   force =     0.00000000   -0.00000000   -0.00000000
     atom    3 type  1   force =    -0.00000001    0.00000000   -0.00000000
     atom    4 type  1   force =     0.00000001   -0.00000000   -0.00000000
     The Hubbard contrib.    to forces
     atom    1 type  1   force =     0.00000000    0.00000000    0.00000000
     atom    2 type  1   force =     0.00000000    0.00000000    0.00000000
     atom    3 type  1   force =     0.00000000    0.00000000    0.00000000
     atom    4 type  1   force =     0.00000000    0.00000000    0.00000000
     The SCF correction term to forces
     atom    1 type  1   force =    -0.00000000    0.00000000    0.00000000
     atom    2 type  1   force =     0.00000000   -0.00000000   -0.00000000
     atom    3 type  1   force =     0.00000000   -0.00000000   -0.00000000
     atom    4 type  1   force =    -0.00000000    0.00000000    0.00000000

     Total force =     0.000000     Total SCF correction =     0.000000


     Computing stress (Cartesian axis) and pressure

          total   stress  (Ry/bohr**3)                   (kbar)     P=        0.66
  -0.00000582  -0.00000000   0.00000000           -0.86       -0.00        0.00
  -0.00000000  -0.00000582  -0.00000000           -0.00       -0.86       -0.00
   0.00000000  -0.00000000   0.00002503            0.00       -0.00        3.68

     kinetic stress (kbar)   9845.18      0.00     -0.00
                                0.00   9845.18      0.00
                               -0.00      0.00  11182.35

     local   stress (kbar) -26105.30      0.00      0.00
                                0.00 -26105.30      0.00
                                0.00      0.00  25392.03

     nonloc. stress (kbar)   2479.36     -0.00      0.00
                               -0.00   2479.36     -0.00
                               -0.00     -0.00   2261.04

     hartree stress (kbar)   9269.14     -0.00      0.00
                               -0.00   9269.14     -0.00
                                0.00     -0.00  -8394.24

     exc-cor stress (kbar)   -177.07     -0.00     -0.00
                               -0.00   -177.07     -0.00
                               -0.00     -0.00   -287.39

     corecor stress (kbar)  -2372.05      0.00     -0.00
                                0.00  -2372.05     -0.00
                               -0.00     -0.00  -2331.54

     ewald   stress (kbar)   7059.88     -0.00      0.00
                               -0.00   7059.88      0.00
                                0.00      0.00 -27818.56

     hubbard stress (kbar)      0.00      0.00      0.00
                                0.00      0.00      0.00
                                0.00      0.00      0.00

     DFT-D   stress (kbar)      0.00      0.00      0.00
                                0.00      0.00      0.00
                                0.00      0.00      0.00

     XDM     stress (kbar)      0.00      0.00      0.00
                                0.00      0.00      0.00
                                0.00      0.00      0.00

     dft-nl  stress (kbar)      0.00      0.00      0.00
                                0.00      0.00      0.00
                                0.00      0.00      0.00

     TS-vdW  stress (kbar)      0.00      0.00      0.00
                                0.00      0.00      0.00
                                0.00      0.00      0.00

     MDB     stress (kbar)      0.00      0.00      0.00
                                0.00      0.00      0.00
                                0.00      0.00      0.00

     3D-RISM stress (kbar)      0.00      0.00      0.00
                                0.00      0.00      0.00
                                0.00      0.00      0.00

     Message from routine bfgs:
     history already reset at previous step: exiting
     Energy error            =      1.3E-03 Ry
     Gradient error          =      2.2E-24 Ry/Bohr
     Cell gradient error     =      3.7E+00 kbar

     bfgs failed after   9 scf cycles and   6 bfgs steps, convergence not achieved
     (criteria: energy <  1.0E-04 Ry, force <  1.0E-05 Ry/Bohr, cell <  1.0E-01 kbar)

     End of BFGS Geometry Optimization

     Final enthalpy           =     -73.7729406988 Ry

     File ./out/graphite.bfgs deleted, as requested
Begin final coordinates
     new unit-cell volume =    279.94915 a.u.^3 (    41.48418 Ang^3 )
     density =      1.92307 g/cm^3

CELL_PARAMETERS (angstrom)
   2.467291260   0.000000000   0.000000000
  -1.233645630   2.136736910   0.000000000
   0.000000000  -0.000000000   7.868846724

ATOMIC_POSITIONS (crystal)
C                0.0000000000        0.0000000000        0.2500000000
C               -0.0000000000       -0.0000000000        0.7500000000
C                0.3333333300        0.6666666700        0.2500000000
C                0.6666666700        0.3333333300        0.7500000000
End final coordinates



     Writing config-only to output data dir ./out/graphite.save/ :
     XML data file

     Writing all to output data dir ./out/graphite.save/ :
     XML data file, charge density, pseudopotentials, collected wavefunctions

     init_run     :      0.30s CPU      0.32s WALL (       1 calls)
     electrons    :     97.71s CPU    101.95s WALL (       9 calls)
     update_pot   :      0.12s CPU      0.12s WALL (       8 calls)
     forces       :      0.48s CPU      0.51s WALL (       9 calls)
     stress       :      1.57s CPU      1.63s WALL (       9 calls)

     Called by init_run:
     wfcinit      :      0.23s CPU      0.24s WALL (       1 calls)
     wfcinit:atom :      0.00s CPU      0.00s WALL (     176 calls)
     wfcinit:wfcr :      0.21s CPU      0.22s WALL (     176 calls)
     potinit      :      0.02s CPU      0.02s WALL (       1 calls)
     hinit0       :      0.03s CPU      0.03s WALL (       1 calls)

     Called by electrons:
     c_bands      :     79.11s CPU     82.56s WALL (     195 calls)
     sum_band     :     15.38s CPU     16.03s WALL (     195 calls)
     v_of_rho     :      0.65s CPU      0.66s WALL (     196 calls)
     v_h          :      0.04s CPU      0.04s WALL (     196 calls)
     v_xc         :      0.65s CPU      0.66s WALL (     214 calls)
     newd         :      0.29s CPU      0.30s WALL (     196 calls)
     PAW_pot      :      2.27s CPU      2.30s WALL (     204 calls)
     mix_rho      :      0.13s CPU      0.13s WALL (     195 calls)

     Called by c_bands:
     init_us_2    :      1.38s CPU      1.41s WALL (   73392 calls)
     cegterg      :     76.34s CPU     79.64s WALL (   34320 calls)

     Called by sum_band:
     sum_band:wei :      0.44s CPU      0.44s WALL (     195 calls)
     sum_band:loo :     14.57s CPU     15.22s WALL (     195 calls)
     sum_band:buf :      0.11s CPU      0.12s WALL (   34320 calls)
     sum_band:ini :      0.61s CPU      0.63s WALL (   34320 calls)
     sum_band:cal :      1.79s CPU      1.85s WALL (   35728 calls)
     sum_band:bec :      0.08s CPU      0.09s WALL (   35728 calls)
     addusdens    :      0.23s CPU      0.23s WALL (     195 calls)
                                        0.00s GPU  (     195 calls)
     addusd:skk   :      0.00s CPU      0.00s WALL (     195 calls)
                                        0.00s GPU  (     195 calls)

     Called by *egterg:
     cdiaghg      :      7.36s CPU      7.41s WALL (   84068 calls)
     cegterg:over :      4.09s CPU      4.20s WALL (   52564 calls)
     cegterg:upda :      1.35s CPU      1.40s WALL (   52564 calls)
     cegterg:last :      1.51s CPU      1.56s WALL (   49740 calls)
     h_psi        :     56.68s CPU     59.32s WALL (   87060 calls)
     s_psi        :      2.18s CPU      2.25s WALL (   87060 calls)
     g_psi        :      0.14s CPU      0.15s WALL (   52564 calls)

     Called by h_psi:
     h_psi:calbec :      3.93s CPU      4.08s WALL (   87060 calls)
     vloc_psi     :     50.16s CPU     52.48s WALL (   87060 calls)
                                        0.00s GPU  (   87060 calls)
     add_vuspsi   :      2.38s CPU      2.45s WALL (   87060 calls)

     General routines
     calbec       :      7.01s CPU      7.22s WALL (  149716 calls)
     fft          :      0.55s CPU      0.56s WALL (    2771 calls)
     ffts         :      0.02s CPU      0.03s WALL (     391 calls)
     fftw         :     57.51s CPU     59.89s WALL ( 2245322 calls)
     interpolate  :      0.06s CPU      0.06s WALL (     196 calls)
     davcio       :      0.00s CPU      0.02s WALL (     176 calls)

     Parallel routines

     PAW routines
     PAW_pot      :      2.27s CPU      2.30s WALL (     204 calls)
     PAW_symme    :      0.01s CPU      0.01s WALL (     399 calls)

     PWSCF        :   1m40.59s CPU   1m45.13s WALL


   This run was terminated on:  15:33:57   7May2026            

=------------------------------------------------------------------------------=
   JOB DONE.
=------------------------------------------------------------------------------=
