
     Program PWSCF v.7.5 starts on 27Apr2026 at 18:13:58 

     This program is part of the open-source Quantum ESPRESSO suite
     for quantum simulation of materials; please cite
         "P. Giannozzi et al., J. Phys.:Condens. Matter 21 395502 (2009);
         "P. Giannozzi et al., J. Phys.:Condens. Matter 29 465901 (2017);
         "P. Giannozzi et al., J. Chem. Phys. 152 154105 (2020);
          URL http://www.quantum-espresso.org", 
     in publications or presentations arising from this work. More details at
     http://www.quantum-espresso.org/quote

     Parallel version (MPI), running on     6 processors

     MPI processes distributed on     1 nodes
     0 MiB available memory on the printing compute node when the environment starts

     Reading input from h2o.relax.in

     Current dimensions of program PWSCF are:
     Max number of different atomic species (ntypx) = 10
     Max number of k-points (npk) =  40000
     Max angular momentum in pseudopotentials (lmaxx) =  4
     file O.pbe-n-kjpaw_psl.0.1.UPF: wavefunction(s)  2P renormalized

     R & G space division:  proc/nbgrp/npool/nimage =       6
     Subspace diagonalization in iterative solution of the eigenvalue problem:
     a serial algorithm will be used


     Parallelization info
     --------------------
     sticks:   dense  smooth     PW     G-vecs:    dense   smooth      PW
     Min        2272    1136    297               199746    70616    9508
     Max        2273    1137    300               199749    70619    9509
     Sum       13637    6817   1789              1198487   423701   57051

     Using Slab Decomposition



     bravais-lattice index     =            0
     lattice parameter (alat)  =      18.8973  a.u.
     unit-cell volume          =    6748.3345 (a.u.)^3
     number of atoms/cell      =            3
     number of atomic types    =            2
     number of electrons       =         8.00
     number of Kohn-Sham states=            8
     kinetic-energy cutoff     =      60.0000  Ry
     charge density cutoff     =     480.0000  Ry
     scf convergence threshold =      6.0E-10
     mixing beta               =       0.4000
     number of iterations used =            8  plain     mixing
     energy convergence thresh.=      3.0E-05
     force convergence thresh. =      1.0E-04
     Exchange-correlation= SLA  PW   PBX  PBC
                           (   1   4   3   4   0   0   0)
     nstep                     =           50


     celldm(1)=  18.897261  celldm(2)=   0.000000  celldm(3)=   0.000000
     celldm(4)=   0.000000  celldm(5)=   0.000000  celldm(6)=   0.000000

     crystal axes: (cart. coord. in units of alat)
               a(1) = (   1.000000   0.000000   0.000000 )  
               a(2) = (   0.000000   1.000000   0.000000 )  
               a(3) = (   0.000000   0.000000   1.000000 )  

     reciprocal axes: (cart. coord. in units 2 pi/alat)
               b(1) = (  1.000000  0.000000  0.000000 )  
               b(2) = (  0.000000  1.000000  0.000000 )  
               b(3) = (  0.000000  0.000000  1.000000 )  


     PseudoPot. # 1 for H  read from file:
     ./pseudo/H.pbe-rrkjus_psl.1.0.0.UPF
     MD5 check sum: f52b6d4d1c606e5624b1dc7b2218f220
     Pseudo is Ultrasoft, Zval =  1.0
     Generated using "atomic" code by A. Dal Corso  v.5.1
     Using radial grid of  929 points,  2 beta functions with: 
                l(1) =   0
                l(2) =   0
     Q(r) pseudized with 0 coefficients 


     PseudoPot. # 2 for O  read from file:
     ./pseudo/O.pbe-n-kjpaw_psl.0.1.UPF
     MD5 check sum: 0234752ac141de4415c5fc33072bef88
     Pseudo is Projector augmented-wave + core cor, Zval =  6.0
     Generated using "atomic" code by A. Dal Corso  v.5.0.99 svn rev. 10869
     Shape of augmentation charge: BESSEL
     Using radial grid of 1095 points,  4 beta functions with: 
                l(1) =   0
                l(2) =   0
                l(3) =   1
                l(4) =   1
     Q(r) pseudized with 0 coefficients 


     atomic species   valence    mass     pseudopotential
     H                 1.00     1.00794     H ( 1.00)
     O                 6.00    15.99940     O ( 1.00)

     No symmetry found


                                    s                        frac. trans.

      isym =  1     identity                                     

 cryst.   s( 1) = (     1          0          0      )
                  (     0          1          0      )
                  (     0          0          1      )

 cart.    s( 1) = (  1.0000000  0.0000000  0.0000000 )
                  (  0.0000000  1.0000000  0.0000000 )
                  (  0.0000000  0.0000000  1.0000000 )


   Cartesian axes

     site n.     atom                  positions (alat units)
         1        O      tau(   1) = (   0.5908490   0.4991110   0.4956740  )
         2        H      tau(   2) = (   0.5629640   0.4274740   0.4366820  )
         3        H      tau(   3) = (   0.6876380   0.4955270   0.4927230  )

   Crystallographic axes

     site n.     atom                  positions (cryst. coord.)
         1        O      tau(   1) = (  0.5908490  0.4991110  0.4956740  )
         2        H      tau(   2) = (  0.5629640  0.4274740  0.4366820  )
         3        H      tau(   3) = (  0.6876380  0.4955270  0.4927230  )

     number of k points=    14  Marzari-Vanderbilt smearing, width (Ry)=  0.0200
                       cart. coord. in units 2pi/alat
        k(    1) = (   0.0000000   0.0000000   0.0000000), wk =   0.0740741
        k(    2) = (   0.0000000   0.0000000   0.3333333), wk =   0.1481481
        k(    3) = (   0.0000000   0.3333333   0.3333333), wk =   0.1481481
        k(    4) = (   0.3333333   0.3333333   0.3333333), wk =   0.1481481
        k(    5) = (   0.3333333   0.0000000   0.0000000), wk =   0.1481481
        k(    6) = (   0.0000000   0.3333333   0.0000000), wk =   0.1481481
        k(    7) = (   0.0000000  -0.3333333   0.3333333), wk =   0.1481481
        k(    8) = (   0.3333333   0.0000000  -0.3333333), wk =   0.1481481
        k(    9) = (  -0.3333333   0.0000000  -0.3333333), wk =   0.1481481
        k(   10) = (   0.3333333  -0.3333333   0.0000000), wk =   0.1481481
        k(   11) = (  -0.3333333  -0.3333333   0.0000000), wk =   0.1481481
        k(   12) = (  -0.3333333  -0.3333333   0.3333333), wk =   0.1481481
        k(   13) = (  -0.3333333   0.3333333  -0.3333333), wk =   0.1481481
        k(   14) = (   0.3333333  -0.3333333  -0.3333333), wk =   0.1481481

                       cryst. coord.
        k(    1) = (   0.0000000   0.0000000   0.0000000), wk =   0.0740741
        k(    2) = (   0.0000000   0.0000000   0.3333333), wk =   0.1481481
        k(    3) = (   0.0000000   0.3333333   0.3333333), wk =   0.1481481
        k(    4) = (   0.3333333   0.3333333   0.3333333), wk =   0.1481481
        k(    5) = (   0.3333333   0.0000000   0.0000000), wk =   0.1481481
        k(    6) = (   0.0000000   0.3333333   0.0000000), wk =   0.1481481
        k(    7) = (   0.0000000  -0.3333333   0.3333333), wk =   0.1481481
        k(    8) = (   0.3333333   0.0000000  -0.3333333), wk =   0.1481481
        k(    9) = (  -0.3333333   0.0000000  -0.3333333), wk =   0.1481481
        k(   10) = (   0.3333333  -0.3333333   0.0000000), wk =   0.1481481
        k(   11) = (  -0.3333333  -0.3333333   0.0000000), wk =   0.1481481
        k(   12) = (  -0.3333333  -0.3333333   0.3333333), wk =   0.1481481
        k(   13) = (  -0.3333333   0.3333333  -0.3333333), wk =   0.1481481
        k(   14) = (   0.3333333  -0.3333333  -0.3333333), wk =   0.1481481

     Dense  grid:  1198487 G-vectors     FFT dimensions: ( 135, 135, 135)

     Smooth grid:   423701 G-vectors     FFT dimensions: (  96,  96,  96)

     Dynamical RAM for                 wfc:       1.08 MB

     Dynamical RAM for     wfc (w. buffer):      16.16 MB

     Dynamical RAM for           str. fact:       6.10 MB

     Dynamical RAM for           local pot:       0.00 MB

     Dynamical RAM for          nlocal pot:       1.62 MB

     Dynamical RAM for                qrad:       1.00 MB

     Dynamical RAM for          rho,v,vnew:      18.74 MB

     Dynamical RAM for               rhoin:       6.25 MB

     Dynamical RAM for            rho*nmix:      48.77 MB

     Dynamical RAM for           G-vectors:      11.97 MB

     Dynamical RAM for          h,s,v(r/c):       0.01 MB

     Dynamical RAM for          <psi|beta>:       0.00 MB

     Dynamical RAM for                 psi:       2.16 MB

     Dynamical RAM for                hpsi:       2.16 MB

     Dynamical RAM for                spsi:       2.16 MB

     Dynamical RAM for      wfcinit/wfcrot:       2.16 MB

     Dynamical RAM for           addusdens:     137.16 MB

     Dynamical RAM for          addusforce:     144.78 MB

     Dynamical RAM for         addusstress:     152.40 MB

     Estimated static dynamical RAM per process >      86.97 MB

     Estimated max dynamical RAM per process >     288.13 MB

     Estimated total dynamical RAM >       1.69 GB

     Initial potential from superposition of free atoms

     starting charge       8.0000, renormalised to       8.0000

     negative rho (up, down):  2.883E-04 0.000E+00
     Starting wfcs are    6 randomized atomic wfcs +    2 random wfcs
     Checking if some PAW data can be deallocated... 
       PAW data deallocated on    4 nodes for type:  2

     total cpu time spent up to now is        1.0 secs

     Self-consistent Calculation

     iteration #  1     ecut=    60.00 Ry     beta= 0.40
     Davidson diagonalization with overlap

---- Real-time Memory Report at c_bands before calling an iterative solver
             0 MiB given to the printing process from OS
             0 MiB allocation reported by mallinfo(arena+hblkhd)
             0 MiB available memory on the node where the printing process lives
------------------
     ethr =  1.00E-02,  avg # of iterations =  7.6

     negative rho (up, down):  5.088E-04 0.000E+00

     total cpu time spent up to now is        3.4 secs

     total energy              =     -43.94396393 Ry
     estimated scf accuracy    <       0.45623038 Ry

     iteration #  2     ecut=    60.00 Ry     beta= 0.40
     Davidson diagonalization with overlap

---- Real-time Memory Report at c_bands before calling an iterative solver
             0 MiB given to the printing process from OS
             0 MiB allocation reported by mallinfo(arena+hblkhd)
             0 MiB available memory on the node where the printing process lives
------------------
     ethr =  5.70E-03,  avg # of iterations =  2.0

     negative rho (up, down):  5.297E-04 0.000E+00

     total cpu time spent up to now is        4.8 secs

     total energy              =     -44.04234158 Ry
     estimated scf accuracy    <       0.02894877 Ry

     iteration #  3     ecut=    60.00 Ry     beta= 0.40
     Davidson diagonalization with overlap

---- Real-time Memory Report at c_bands before calling an iterative solver
             0 MiB given to the printing process from OS
             0 MiB allocation reported by mallinfo(arena+hblkhd)
             0 MiB available memory on the node where the printing process lives
------------------
     ethr =  3.62E-04,  avg # of iterations =  4.8

     negative rho (up, down):  6.892E-04 0.000E+00

     total cpu time spent up to now is        6.5 secs

     total energy              =     -44.03960311 Ry
     estimated scf accuracy    <       0.01023518 Ry

     iteration #  4     ecut=    60.00 Ry     beta= 0.40
     Davidson diagonalization with overlap

---- Real-time Memory Report at c_bands before calling an iterative solver
             0 MiB given to the printing process from OS
             0 MiB allocation reported by mallinfo(arena+hblkhd)
             0 MiB available memory on the node where the printing process lives
------------------
     ethr =  1.28E-04,  avg # of iterations =  4.8

     negative rho (up, down):  6.878E-04 0.000E+00

     total cpu time spent up to now is        8.3 secs

     total energy              =     -44.04026508 Ry
     estimated scf accuracy    <       0.00173818 Ry

     iteration #  5     ecut=    60.00 Ry     beta= 0.40
     Davidson diagonalization with overlap

---- Real-time Memory Report at c_bands before calling an iterative solver
             0 MiB given to the printing process from OS
             0 MiB allocation reported by mallinfo(arena+hblkhd)
             0 MiB available memory on the node where the printing process lives
------------------
     ethr =  2.17E-05,  avg # of iterations =  7.1

     negative rho (up, down):  6.836E-04 0.000E+00

     total cpu time spent up to now is       10.3 secs

     total energy              =     -44.04042917 Ry
     estimated scf accuracy    <       0.00009722 Ry

     iteration #  6     ecut=    60.00 Ry     beta= 0.40
     Davidson diagonalization with overlap

---- Real-time Memory Report at c_bands before calling an iterative solver
             0 MiB given to the printing process from OS
             0 MiB allocation reported by mallinfo(arena+hblkhd)
             0 MiB available memory on the node where the printing process lives
------------------
     c_bands:  1 eigenvalues not converged
     c_bands:  1 eigenvalues not converged
     ethr =  1.22E-06,  avg # of iterations = 10.1

     negative rho (up, down):  6.844E-04 0.000E+00

     total cpu time spent up to now is       12.9 secs

     total energy              =     -44.04045848 Ry
     estimated scf accuracy    <       0.00000292 Ry

     iteration #  7     ecut=    60.00 Ry     beta= 0.40
     Davidson diagonalization with overlap

---- Real-time Memory Report at c_bands before calling an iterative solver
             0 MiB given to the printing process from OS
             0 MiB allocation reported by mallinfo(arena+hblkhd)
             0 MiB available memory on the node where the printing process lives
------------------
     c_bands:  1 eigenvalues not converged
     ethr =  3.65E-08,  avg # of iterations =  5.6

     negative rho (up, down):  6.894E-04 0.000E+00

     total cpu time spent up to now is       14.7 secs

     total energy              =     -44.04045371 Ry
     estimated scf accuracy    <       0.00002057 Ry

     iteration #  8     ecut=    60.00 Ry     beta= 0.40
     Davidson diagonalization with overlap

---- Real-time Memory Report at c_bands before calling an iterative solver
             0 MiB given to the printing process from OS
             0 MiB allocation reported by mallinfo(arena+hblkhd)
             0 MiB available memory on the node where the printing process lives
------------------
     ethr =  3.65E-08,  avg # of iterations =  3.1

     negative rho (up, down):  6.909E-04 0.000E+00

     total cpu time spent up to now is       16.2 secs

     total energy              =     -44.04045672 Ry
     estimated scf accuracy    <       0.00000018 Ry

     iteration #  9     ecut=    60.00 Ry     beta= 0.40
     Davidson diagonalization with overlap

---- Real-time Memory Report at c_bands before calling an iterative solver
             0 MiB given to the printing process from OS
             0 MiB allocation reported by mallinfo(arena+hblkhd)
             0 MiB available memory on the node where the printing process lives
------------------
     ethr =  2.23E-09,  avg # of iterations =  1.1

     negative rho (up, down):  6.921E-04 0.000E+00

     total cpu time spent up to now is       17.4 secs

     total energy              =     -44.04045672 Ry
     estimated scf accuracy    <       0.00000007 Ry

     iteration # 10     ecut=    60.00 Ry     beta= 0.40
     Davidson diagonalization with overlap

---- Real-time Memory Report at c_bands before calling an iterative solver
             0 MiB given to the printing process from OS
             0 MiB allocation reported by mallinfo(arena+hblkhd)
             0 MiB available memory on the node where the printing process lives
------------------
     ethr =  8.19E-10,  avg # of iterations =  1.9

     negative rho (up, down):  6.928E-04 0.000E+00

     total cpu time spent up to now is       18.7 secs

     total energy              =     -44.04045672 Ry
     estimated scf accuracy    <       0.00000001 Ry

     iteration # 11     ecut=    60.00 Ry     beta= 0.40
     Davidson diagonalization with overlap

---- Real-time Memory Report at c_bands before calling an iterative solver
             0 MiB given to the printing process from OS
             0 MiB allocation reported by mallinfo(arena+hblkhd)
             0 MiB available memory on the node where the printing process lives
------------------
     ethr =  1.76E-10,  avg # of iterations =  2.0

     negative rho (up, down):  6.932E-04 0.000E+00

     total cpu time spent up to now is       20.1 secs

     total energy              =     -44.04045673 Ry
     estimated scf accuracy    <          8.4E-10 Ry

     iteration # 12     ecut=    60.00 Ry     beta= 0.40
     Davidson diagonalization with overlap

---- Real-time Memory Report at c_bands before calling an iterative solver
             0 MiB given to the printing process from OS
             0 MiB allocation reported by mallinfo(arena+hblkhd)
             0 MiB available memory on the node where the printing process lives
------------------
     ethr =  1.05E-11,  avg # of iterations =  3.0

     negative rho (up, down):  6.938E-04 0.000E+00

     total cpu time spent up to now is       21.6 secs

     End of self-consistent calculation

          k = 0.0000 0.0000 0.0000 ( 52923 PWs)   bands (ev):

   -25.1858 -12.9610  -9.2120  -7.1077  -0.9506   0.4281   0.7307   1.0887

     occupation numbers 
     1.0000   1.0000   1.0000   1.0000   0.0000   0.0000   0.0000   0.0000

          k = 0.0000 0.0000 0.3333 ( 52914 PWs)   bands (ev):

   -25.1858 -12.9610  -9.2120  -7.1078  -0.8963   0.2131   0.8141   0.8966

     occupation numbers 
     1.0000   1.0000   1.0000   1.0000   0.0000   0.0000   0.0000   0.0000

          k = 0.0000 0.3333 0.3333 ( 52939 PWs)   bands (ev):

   -25.1858 -12.9610  -9.2121  -7.1078  -0.8485   0.2767   0.5307   0.8983

     occupation numbers 
     1.0000   1.0000   1.0000   1.0000   0.0000   0.0000   0.0000   0.0000

          k = 0.3333 0.3333 0.3333 ( 52995 PWs)   bands (ev):

   -25.1858 -12.9611  -9.2121  -7.1078  -0.7978   0.3036   0.6726   0.6859

     occupation numbers 
     1.0000   1.0000   1.0000   1.0000   0.0000   0.0000   0.0000   0.0000

          k = 0.3333 0.0000 0.0000 ( 52914 PWs)   bands (ev):

   -25.1858 -12.9610  -9.2120  -7.1077  -0.8867   0.1573   0.7863   1.0830

     occupation numbers 
     1.0000   1.0000   1.0000   1.0000   0.0000   0.0000   0.0000   0.0000

          k = 0.0000 0.3333 0.0000 ( 52914 PWs)   bands (ev):

   -25.1858 -12.9610  -9.2120  -7.1077  -0.8953   0.2082   0.8128   0.9129

     occupation numbers 
     1.0000   1.0000   1.0000   1.0000   0.0000   0.0000   0.0000   0.0000

          k = 0.0000-0.3333 0.3333 ( 52939 PWs)   bands (ev):

   -25.1858 -12.9610  -9.2121  -7.1078  -0.8491   0.3196   0.4561   0.9780

     occupation numbers 
     1.0000   1.0000   1.0000   1.0000   0.0000   0.0000   0.0000   0.0000

          k = 0.3333 0.0000-0.3333 ( 52939 PWs)   bands (ev):

   -25.1858 -12.9610  -9.2121  -7.1078  -0.8407   0.3002   0.4076   0.9612

     occupation numbers 
     1.0000   1.0000   1.0000   1.0000   0.0000   0.0000   0.0000   0.0000

          k =-0.3333 0.0000-0.3333 ( 52939 PWs)   bands (ev):

   -25.1858 -12.9610  -9.2120  -7.1078  -0.8398   0.2280   0.5232   0.9307

     occupation numbers 
     1.0000   1.0000   1.0000   1.0000   0.0000   0.0000   0.0000   0.0000

          k = 0.3333-0.3333 0.0000 ( 52939 PWs)   bands (ev):

   -25.1858 -12.9610  -9.2121  -7.1077  -0.8398   0.3067   0.3951   0.9613

     occupation numbers 
     1.0000   1.0000   1.0000   1.0000   0.0000   0.0000   0.0000   0.0000

          k =-0.3333-0.3333 0.0000 ( 52939 PWs)   bands (ev):

   -25.1858 -12.9610  -9.2121  -7.1077  -0.8386   0.2198   0.5333   0.9299

     occupation numbers 
     1.0000   1.0000   1.0000   1.0000   0.0000   0.0000   0.0000   0.0000

          k =-0.3333-0.3333 0.3333 ( 52995 PWs)   bands (ev):

   -25.1858 -12.9611  -9.2121  -7.1078  -0.7992   0.3639   0.5459   0.7071

     occupation numbers 
     1.0000   1.0000   1.0000   1.0000   0.0000   0.0000   0.0000   0.0000

          k =-0.3333 0.3333-0.3333 ( 52995 PWs)   bands (ev):

   -25.1858 -12.9610  -9.2121  -7.1078  -0.7993   0.3768   0.5294   0.7052

     occupation numbers 
     1.0000   1.0000   1.0000   1.0000   0.0000   0.0000   0.0000   0.0000

          k = 0.3333-0.3333-0.3333 ( 52995 PWs)   bands (ev):

   -25.1858 -12.9610  -9.2121  -7.1078  -0.7996   0.4467   0.4596   0.6827

     occupation numbers 
     1.0000   1.0000   1.0000   1.0000   0.0000   0.0000   0.0000   0.0000

     the Fermi energy is    -4.1193 ev

!    total energy              =     -44.04045673 Ry
     estimated scf accuracy    <          1.4E-10 Ry
     smearing contrib. (-TS)   =       0.00000000 Ry
     internal energy E=F+TS    =     -44.04045673 Ry

     The total energy is F=E-TS. E is the sum of the following terms:
     one-electron contribution =     -63.00080827 Ry
     hartree contribution      =      33.08445911 Ry
     xc contribution           =      -8.83573329 Ry
     ewald contribution        =       4.22073421 Ry
     one-center paw contrib.   =      -9.50910849 Ry
      -> PAW hartree energy AE =      28.41459854 Ry
      -> PAW hartree energy PS =     -28.28215547 Ry
      -> PAW xc energy AE      =     -17.02644867 Ry
      -> PAW xc energy PS      =       7.38489712 Ry
      -> total E_H with PAW    =      33.21690217 Ry
      -> total E_XC with PAW   =     -18.47728484 Ry

     convergence has been achieved in  12 iterations

     negative rho (up, down):  6.938E-04 0.000E+00

     Forces acting on atoms (cartesian axes, Ry/au):

     atom    1 type  2   force =    -0.00094053    0.00102198    0.00084393
     atom    2 type  1   force =    -0.00155572   -0.00164866   -0.00136283
     atom    3 type  1   force =     0.00249625    0.00062668    0.00051890
     The non-local contrib.  to forces
     atom    1 type  2   force =     1.41561045   -1.54556660   -1.27281526
     atom    2 type  1   force =     0.03514670    0.07984971    0.06575457
     atom    3 type  1   force =    -0.10923236    0.00103243    0.00084958
     The ionic contribution  to forces
     atom    1 type  2   force =    -2.53454545    2.76764411    2.27920149
     atom    2 type  1   force =    -1.21928081   -2.74133105   -2.25756089
     atom    3 type  1   force =     3.75382626   -0.02631306   -0.02164060
     The local contribution  to forces
     atom    1 type  2   force =     1.13204299   -1.23639249   -1.01817331
     atom    2 type  1   force =     1.18257792    2.65983606    2.19044627
     atom    3 type  1   force =    -3.64210156    0.02590884    0.02131119
     The core correction contribution to forces
     atom    1 type  2   force =    -0.01405794    0.01534806    0.01264027
     atom    2 type  1   force =     0.00000000    0.00000000    0.00000000
     atom    3 type  1   force =     0.00000000    0.00000000    0.00000000
     The Hubbard contrib.    to forces
     atom    1 type  2   force =     0.00000000    0.00000000    0.00000000
     atom    2 type  1   force =     0.00000000    0.00000000    0.00000000
     atom    3 type  1   force =     0.00000000    0.00000000    0.00000000
     The SCF correction term to forces
     atom    1 type  2   force =     0.00000875   -0.00001034   -0.00000863
     atom    2 type  1   force =    -0.00000020   -0.00000261   -0.00000216
     atom    3 type  1   force =     0.00000324   -0.00000075   -0.00000064

     Total force =     0.004066     Total SCF correction =     0.000017


     Computing stress (Cartesian axis) and pressure


     negative rho (up, down):  6.938E-04 0.000E+00
          total   stress  (Ry/bohr**3)                   (kbar)     P=       -0.02
   0.00000024   0.00000027   0.00000023            0.04        0.04        0.03
   0.00000027  -0.00000024   0.00000028            0.04       -0.04        0.04
   0.00000023   0.00000028  -0.00000031            0.03        0.04       -0.05

     kinetic stress (kbar)    255.27     -9.57     -7.88
                               -9.57    281.95    -21.74
                               -7.88    -21.74    290.45

     local   stress (kbar)   -589.64    -26.07    -21.47
                              -26.07   -518.59    -55.46
                              -21.47    -55.46   -496.47

     nonloc. stress (kbar)     47.32      0.03      0.03
                                0.03     48.42     -1.37
                                0.03     -1.37     48.95

     hartree stress (kbar)    251.89      5.17      4.26
                                5.17    237.02     11.78
                                4.26     11.78    232.29

     exc-cor stress (kbar)    -50.76      0.11      0.09
                                0.11    -51.10      0.28
                                0.09      0.28    -51.21

     corecor stress (kbar)     -9.23      0.02      0.01
                                0.02     -9.29      0.05
                                0.01      0.05     -9.31

     ewald   stress (kbar)     95.20     30.35     24.99
                               30.35     11.55     66.51
                               24.99     66.51    -14.75

     hubbard stress (kbar)      0.00      0.00      0.00
                                0.00      0.00      0.00
                                0.00      0.00      0.00

     DFT-D   stress (kbar)      0.00      0.00      0.00
                                0.00      0.00      0.00
                                0.00      0.00      0.00

     XDM     stress (kbar)      0.00      0.00      0.00
                                0.00      0.00      0.00
                                0.00      0.00      0.00

     dft-nl  stress (kbar)      0.00      0.00      0.00
                                0.00      0.00      0.00
                                0.00      0.00      0.00

     TS-vdW  stress (kbar)      0.00      0.00      0.00
                                0.00      0.00      0.00
                                0.00      0.00      0.00

     MDB     stress (kbar)      0.00      0.00      0.00
                                0.00      0.00      0.00
                                0.00      0.00      0.00

     3D-RISM stress (kbar)      0.00      0.00      0.00
                                0.00      0.00      0.00
                                0.00      0.00      0.00


     BFGS Geometry Optimization
     Energy error            =      1.7E-05 Ry
     Gradient error          =      2.5E-03 Ry/Bohr

     number of scf cycles    =   1
     number of bfgs steps    =   0

     energy             new  =     -44.0404567307 Ry

     new trust radius        =       0.0026449309 bohr
     new conv_thr            =       0.0000000006 Ry


ATOMIC_POSITIONS (crystal)
O                0.5907992714        0.4991650778        0.4957186731
H                0.5628816379        0.4273867786        0.4366099269
H                0.6877701397        0.4955601315        0.4927504470



     Writing config-only to output data dir ./out/h2o.save/ :
     XML data file
     NEW-OLD atomic charge density approx. for the potential

     negative rho (up, down):  6.926E-04 0.000E+00

     total cpu time spent up to now is       23.4 secs

     Self-consistent Calculation

     iteration #  1     ecut=    60.00 Ry     beta= 0.40
     Davidson diagonalization with overlap

---- Real-time Memory Report at c_bands before calling an iterative solver
             0 MiB given to the printing process from OS
             0 MiB allocation reported by mallinfo(arena+hblkhd)
             0 MiB available memory on the node where the printing process lives
------------------
     ethr =  1.00E-06,  avg # of iterations =  2.0

     Threshold (ethr) on eigenvalues was too large:
     Diagonalizing with lowered threshold

     Davidson diagonalization with overlap

---- Real-time Memory Report at c_bands before calling an iterative solver
             0 MiB given to the printing process from OS
             0 MiB allocation reported by mallinfo(arena+hblkhd)
             0 MiB available memory on the node where the printing process lives
------------------
     ethr =  8.31E-08,  avg # of iterations =  1.0

     negative rho (up, down):  6.919E-04 0.000E+00

     total cpu time spent up to now is       25.7 secs

     total energy              =     -44.04045998 Ry
     estimated scf accuracy    <       0.00000700 Ry

     iteration #  2     ecut=    60.00 Ry     beta= 0.40
     Davidson diagonalization with overlap

---- Real-time Memory Report at c_bands before calling an iterative solver
             0 MiB given to the printing process from OS
             0 MiB allocation reported by mallinfo(arena+hblkhd)
             0 MiB available memory on the node where the printing process lives
------------------
     ethr =  8.76E-08,  avg # of iterations =  2.0

     negative rho (up, down):  6.922E-04 0.000E+00

     total cpu time spent up to now is       27.1 secs

     total energy              =     -44.04046133 Ry
     estimated scf accuracy    <       0.00000037 Ry

     iteration #  3     ecut=    60.00 Ry     beta= 0.40
     Davidson diagonalization with overlap

---- Real-time Memory Report at c_bands before calling an iterative solver
             0 MiB given to the printing process from OS
             0 MiB allocation reported by mallinfo(arena+hblkhd)
             0 MiB available memory on the node where the printing process lives
------------------
     ethr =  4.65E-09,  avg # of iterations =  1.0

     negative rho (up, down):  6.925E-04 0.000E+00

     total cpu time spent up to now is       28.3 secs

     total energy              =     -44.04046128 Ry
     estimated scf accuracy    <       0.00000012 Ry

     iteration #  4     ecut=    60.00 Ry     beta= 0.40
     Davidson diagonalization with overlap

---- Real-time Memory Report at c_bands before calling an iterative solver
             0 MiB given to the printing process from OS
             0 MiB allocation reported by mallinfo(arena+hblkhd)
             0 MiB available memory on the node where the printing process lives
------------------
     ethr =  1.54E-09,  avg # of iterations =  2.0

     negative rho (up, down):  6.924E-04 0.000E+00

     total cpu time spent up to now is       29.7 secs

     total energy              =     -44.04046130 Ry
     estimated scf accuracy    <       0.00000006 Ry

     iteration #  5     ecut=    60.00 Ry     beta= 0.40
     Davidson diagonalization with overlap

---- Real-time Memory Report at c_bands before calling an iterative solver
             0 MiB given to the printing process from OS
             0 MiB allocation reported by mallinfo(arena+hblkhd)
             0 MiB available memory on the node where the printing process lives
------------------
     ethr =  7.09E-10,  avg # of iterations =  2.0

     negative rho (up, down):  6.925E-04 0.000E+00

     total cpu time spent up to now is       31.1 secs

     total energy              =     -44.04046131 Ry
     estimated scf accuracy    <          3.1E-09 Ry

     iteration #  6     ecut=    60.00 Ry     beta= 0.40
     Davidson diagonalization with overlap

---- Real-time Memory Report at c_bands before calling an iterative solver
             0 MiB given to the printing process from OS
             0 MiB allocation reported by mallinfo(arena+hblkhd)
             0 MiB available memory on the node where the printing process lives
------------------
     ethr =  3.90E-11,  avg # of iterations =  2.0

     negative rho (up, down):  6.924E-04 0.000E+00

     total cpu time spent up to now is       32.5 secs

     End of self-consistent calculation

          k = 0.0000 0.0000 0.0000 ( 52923 PWs)   bands (ev):

   -25.1654 -12.9428  -9.2103  -7.1038  -0.9552   0.4257   0.7269   1.0881

     occupation numbers 
     1.0000   1.0000   1.0000   1.0000   0.0000   0.0000   0.0000   0.0000

          k = 0.0000 0.0000 0.3333 ( 52914 PWs)   bands (ev):

   -25.1654 -12.9428  -9.2103  -7.1038  -0.9014   0.2123   0.8106   0.8944

     occupation numbers 
     1.0000   1.0000   1.0000   1.0000   0.0000   0.0000   0.0000   0.0000

          k = 0.0000 0.3333 0.3333 ( 52939 PWs)   bands (ev):

   -25.1654 -12.9428  -9.2103  -7.1038  -0.8539   0.2756   0.5305   0.8954

     occupation numbers 
     1.0000   1.0000   1.0000   1.0000   0.0000   0.0000   0.0000   0.0000

          k = 0.3333 0.3333 0.3333 ( 52995 PWs)   bands (ev):

   -25.1654 -12.9428  -9.2103  -7.1038  -0.8036   0.3019   0.6720   0.6855

     occupation numbers 
     1.0000   1.0000   1.0000   1.0000   0.0000   0.0000   0.0000   0.0000

          k = 0.3333 0.0000 0.0000 ( 52914 PWs)   bands (ev):

   -25.1654 -12.9428  -9.2103  -7.1038  -0.8917   0.1560   0.7838   1.0804

     occupation numbers 
     1.0000   1.0000   1.0000   1.0000   0.0000   0.0000   0.0000   0.0000

          k = 0.0000 0.3333 0.0000 ( 52914 PWs)   bands (ev):

   -25.1654 -12.9428  -9.2103  -7.1038  -0.9003   0.2073   0.8098   0.9104

     occupation numbers 
     1.0000   1.0000   1.0000   1.0000   0.0000   0.0000   0.0000   0.0000

          k = 0.0000-0.3333 0.3333 ( 52939 PWs)   bands (ev):

   -25.1654 -12.9428  -9.2103  -7.1038  -0.8545   0.3192   0.4546   0.9773

     occupation numbers 
     1.0000   1.0000   1.0000   1.0000   0.0000   0.0000   0.0000   0.0000

          k = 0.3333 0.0000-0.3333 ( 52939 PWs)   bands (ev):

   -25.1654 -12.9428  -9.2103  -7.1038  -0.8461   0.2991   0.4063   0.9605

     occupation numbers 
     1.0000   1.0000   1.0000   1.0000   0.0000   0.0000   0.0000   0.0000

          k =-0.3333 0.0000-0.3333 ( 52939 PWs)   bands (ev):

   -25.1654 -12.9428  -9.2103  -7.1038  -0.8452   0.2267   0.5226   0.9295

     occupation numbers 
     1.0000   1.0000   1.0000   1.0000   0.0000   0.0000   0.0000   0.0000

          k = 0.3333-0.3333 0.0000 ( 52939 PWs)   bands (ev):

   -25.1654 -12.9428  -9.2103  -7.1038  -0.8452   0.3055   0.3938   0.9606

     occupation numbers 
     1.0000   1.0000   1.0000   1.0000   0.0000   0.0000   0.0000   0.0000

          k =-0.3333-0.3333 0.0000 ( 52939 PWs)   bands (ev):

   -25.1654 -12.9428  -9.2103  -7.1038  -0.8440   0.2184   0.5328   0.9287

     occupation numbers 
     1.0000   1.0000   1.0000   1.0000   0.0000   0.0000   0.0000   0.0000

          k =-0.3333-0.3333 0.3333 ( 52995 PWs)   bands (ev):

   -25.1654 -12.9428  -9.2103  -7.1038  -0.8049   0.3624   0.5448   0.7067

     occupation numbers 
     1.0000   1.0000   1.0000   1.0000   0.0000   0.0000   0.0000   0.0000

          k =-0.3333 0.3333-0.3333 ( 52995 PWs)   bands (ev):

   -25.1654 -12.9428  -9.2103  -7.1038  -0.8051   0.3754   0.5281   0.7047

     occupation numbers 
     1.0000   1.0000   1.0000   1.0000   0.0000   0.0000   0.0000   0.0000

          k = 0.3333-0.3333-0.3333 ( 52995 PWs)   bands (ev):

   -25.1654 -12.9428  -9.2103  -7.1038  -0.8054   0.4460   0.4572   0.6823

     occupation numbers 
     1.0000   1.0000   1.0000   1.0000   0.0000   0.0000   0.0000   0.0000

     the Fermi energy is    -4.1147 ev

!    total energy              =     -44.04046131 Ry
     estimated scf accuracy    <          2.3E-10 Ry
     smearing contrib. (-TS)   =       0.00000000 Ry
     internal energy E=F+TS    =     -44.04046131 Ry

     The total energy is F=E-TS. E is the sum of the following terms:
     one-electron contribution =     -62.95782944 Ry
     hartree contribution      =      33.06418483 Ry
     xc contribution           =      -8.83231542 Ry
     ewald contribution        =       4.19481166 Ry
     one-center paw contrib.   =      -9.50931294 Ry
      -> PAW hartree energy AE =      28.37652628 Ry
      -> PAW hartree energy PS =     -28.24432471 Ry
      -> PAW xc energy AE      =     -17.02052988 Ry
      -> PAW xc energy PS      =       7.37901537 Ry
      -> total E_H with PAW    =      33.19638640 Ry
      -> total E_XC with PAW   =     -18.47382994 Ry

     convergence has been achieved in   6 iterations

     negative rho (up, down):  6.924E-04 0.000E+00

     Forces acting on atoms (cartesian axes, Ry/au):

     atom    1 type  2   force =     0.00134387   -0.00151253   -0.00124317
     atom    2 type  1   force =    -0.00039221    0.00088833    0.00072634
     atom    3 type  1   force =    -0.00095166    0.00062420    0.00051683
     The non-local contrib.  to forces
     atom    1 type  2   force =     1.41593550   -1.54585762   -1.27306283
     atom    2 type  1   force =     0.03489777    0.07930290    0.06530471
     atom    3 type  1   force =    -0.10848985    0.00102887    0.00084660
     The ionic contribution  to forces
     atom    1 type  2   force =    -2.52570791    2.75774087    2.27106064
     atom    2 type  1   force =    -1.21390953   -2.73103941   -2.24910179
     atom    3 type  1   force =     3.73961743   -0.02670146   -0.02195885
     The local contribution  to forces
     atom    1 type  2   force =     1.12517363   -1.22874277   -1.01188050
     atom    2 type  1   force =     1.17861777    2.65262363    2.18452243
     atom    3 type  1   force =    -3.63207711    0.02629773    0.02162985
     The core correction contribution to forces
     atom    1 type  2   force =    -0.01409540    0.01538875    0.01267386
     atom    2 type  1   force =     0.00000000    0.00000000    0.00000000
     atom    3 type  1   force =     0.00000000    0.00000000    0.00000000
     The Hubbard contrib.    to forces
     atom    1 type  2   force =     0.00000000    0.00000000    0.00000000
     atom    2 type  1   force =     0.00000000    0.00000000    0.00000000
     atom    3 type  1   force =     0.00000000    0.00000000    0.00000000
     The SCF correction term to forces
     atom    1 type  2   force =     0.00003957   -0.00004338   -0.00003568
     atom    2 type  1   force =     0.00000331   -0.00000040   -0.00000033
     atom    3 type  1   force =    -0.00000061   -0.00000256   -0.00000210

     Total force =     0.002945     Total SCF correction =     0.000069


     Computing stress (Cartesian axis) and pressure


     negative rho (up, down):  6.924E-04 0.000E+00
          total   stress  (Ry/bohr**3)                   (kbar)     P=       -0.11
  -0.00000079   0.00000008   0.00000006           -0.12        0.01        0.01
   0.00000008  -0.00000075  -0.00000014            0.01       -0.11       -0.02
   0.00000006  -0.00000014  -0.00000066            0.01       -0.02       -0.10

     kinetic stress (kbar)    255.12     -9.55     -7.87
                               -9.55    281.80    -21.76
                               -7.87    -21.76    290.30

     local   stress (kbar)   -589.21    -26.01    -21.42
                              -26.01   -518.26    -55.40
                              -21.42    -55.40   -496.17

     nonloc. stress (kbar)     47.33      0.03      0.03
                                0.03     48.43     -1.37
                                0.03     -1.37     48.96

     hartree stress (kbar)    251.74      5.16      4.25
                                5.16    236.88     11.78
                                4.25     11.78    232.14

     exc-cor stress (kbar)    -50.74      0.11      0.09
                                0.11    -51.07      0.28
                                0.09      0.28    -51.18

     corecor stress (kbar)     -9.23      0.02      0.01
                                0.02     -9.29      0.05
                                0.01      0.05     -9.31

     ewald   stress (kbar)     94.87     30.25     24.91
                               30.25     11.41     66.39
                               24.91     66.39    -14.84

     hubbard stress (kbar)      0.00      0.00      0.00
                                0.00      0.00      0.00
                                0.00      0.00      0.00

     DFT-D   stress (kbar)      0.00      0.00      0.00
                                0.00      0.00      0.00
                                0.00      0.00      0.00

     XDM     stress (kbar)      0.00      0.00      0.00
                                0.00      0.00      0.00
                                0.00      0.00      0.00

     dft-nl  stress (kbar)      0.00      0.00      0.00
                                0.00      0.00      0.00
                                0.00      0.00      0.00

     TS-vdW  stress (kbar)      0.00      0.00      0.00
                                0.00      0.00      0.00
                                0.00      0.00      0.00

     MDB     stress (kbar)      0.00      0.00      0.00
                                0.00      0.00      0.00
                                0.00      0.00      0.00

     3D-RISM stress (kbar)      0.00      0.00      0.00
                                0.00      0.00      0.00
                                0.00      0.00      0.00

     Energy error            =      4.6E-06 Ry
     Gradient error          =      1.5E-03 Ry/Bohr

     number of scf cycles    =   2
     number of bfgs steps    =   1

     energy             old  =     -44.0404567307 Ry
     energy             new  =     -44.0404613142 Ry

     CASE: energy            _new < energy            _old

     new trust radius        =       0.0013888684 bohr
     new conv_thr            =            6.0E-12 Ry


ATOMIC_POSITIONS (crystal)
O                0.5908406929        0.4991181598        0.4956801428
H                0.5628546387        0.4274057928        0.4366253531
H                0.6877557174        0.4955880354        0.4927735511



     Writing config-only to output data dir ./out/h2o.save/ :
     XML data file
     NEW-OLD atomic charge density approx. for the potential

     negative rho (up, down):  6.921E-04 0.000E+00

     total cpu time spent up to now is       34.3 secs

     Self-consistent Calculation

     iteration #  1     ecut=    60.00 Ry     beta= 0.40
     Davidson diagonalization with overlap

---- Real-time Memory Report at c_bands before calling an iterative solver
             0 MiB given to the printing process from OS
             0 MiB allocation reported by mallinfo(arena+hblkhd)
             0 MiB available memory on the node where the printing process lives
------------------
     ethr =  1.00E-06,  avg # of iterations =  2.0

     Threshold (ethr) on eigenvalues was too large:
     Diagonalizing with lowered threshold

     Davidson diagonalization with overlap

---- Real-time Memory Report at c_bands before calling an iterative solver
             0 MiB given to the printing process from OS
             0 MiB allocation reported by mallinfo(arena+hblkhd)
             0 MiB available memory on the node where the printing process lives
------------------
     ethr =  1.23E-08,  avg # of iterations =  1.0

     negative rho (up, down):  6.926E-04 0.000E+00

     total cpu time spent up to now is       36.6 secs

     total energy              =     -44.04046434 Ry
     estimated scf accuracy    <       0.00000094 Ry

     iteration #  2     ecut=    60.00 Ry     beta= 0.40
     Davidson diagonalization with overlap

---- Real-time Memory Report at c_bands before calling an iterative solver
             0 MiB given to the printing process from OS
             0 MiB allocation reported by mallinfo(arena+hblkhd)
             0 MiB available memory on the node where the printing process lives
------------------
     ethr =  1.17E-08,  avg # of iterations =  2.0

     negative rho (up, down):  6.927E-04 0.000E+00

     total cpu time spent up to now is       38.0 secs

     total energy              =     -44.04046451 Ry
     estimated scf accuracy    <       0.00000009 Ry

     iteration #  3     ecut=    60.00 Ry     beta= 0.40
     Davidson diagonalization with overlap

---- Real-time Memory Report at c_bands before calling an iterative solver
             0 MiB given to the printing process from OS
             0 MiB allocation reported by mallinfo(arena+hblkhd)
             0 MiB available memory on the node where the printing process lives
------------------
     ethr =  1.08E-09,  avg # of iterations =  1.0

     negative rho (up, down):  6.928E-04 0.000E+00

     total cpu time spent up to now is       39.2 secs

     total energy              =     -44.04046451 Ry
     estimated scf accuracy    <       0.00000002 Ry

     iteration #  4     ecut=    60.00 Ry     beta= 0.40
     Davidson diagonalization with overlap

---- Real-time Memory Report at c_bands before calling an iterative solver
             0 MiB given to the printing process from OS
             0 MiB allocation reported by mallinfo(arena+hblkhd)
             0 MiB available memory on the node where the printing process lives
------------------
     ethr =  2.68E-10,  avg # of iterations =  2.0

     negative rho (up, down):  6.929E-04 0.000E+00

     total cpu time spent up to now is       40.6 secs

     total energy              =     -44.04046451 Ry
     estimated scf accuracy    <          5.7E-09 Ry

     iteration #  5     ecut=    60.00 Ry     beta= 0.40
     Davidson diagonalization with overlap

---- Real-time Memory Report at c_bands before calling an iterative solver
             0 MiB given to the printing process from OS
             0 MiB allocation reported by mallinfo(arena+hblkhd)
             0 MiB available memory on the node where the printing process lives
------------------
     ethr =  7.18E-11,  avg # of iterations =  2.0

     negative rho (up, down):  6.929E-04 0.000E+00

     total cpu time spent up to now is       42.0 secs

     total energy              =     -44.04046452 Ry
     estimated scf accuracy    <          1.6E-09 Ry

     iteration #  6     ecut=    60.00 Ry     beta= 0.40
     Davidson diagonalization with overlap

---- Real-time Memory Report at c_bands before calling an iterative solver
             0 MiB given to the printing process from OS
             0 MiB allocation reported by mallinfo(arena+hblkhd)
             0 MiB available memory on the node where the printing process lives
------------------
     ethr =  2.06E-11,  avg # of iterations =  2.0

     negative rho (up, down):  6.929E-04 0.000E+00

     total cpu time spent up to now is       43.4 secs

     total energy              =     -44.04046452 Ry
     estimated scf accuracy    <          2.0E-11 Ry

     iteration #  7     ecut=    60.00 Ry     beta= 0.40
     Davidson diagonalization with overlap

---- Real-time Memory Report at c_bands before calling an iterative solver
             0 MiB given to the printing process from OS
             0 MiB allocation reported by mallinfo(arena+hblkhd)
             0 MiB available memory on the node where the printing process lives
------------------
     ethr =  2.50E-13,  avg # of iterations =  2.6

     negative rho (up, down):  6.929E-04 0.000E+00

     total cpu time spent up to now is       44.8 secs

     End of self-consistent calculation

          k = 0.0000 0.0000 0.0000 ( 52923 PWs)   bands (ev):

   -25.1703 -12.9538  -9.2058  -7.1046  -0.9535   0.4267   0.7279   1.0880

     occupation numbers 
     1.0000   1.0000   1.0000   1.0000   0.0000   0.0000   0.0000   0.0000

          k = 0.0000 0.0000 0.3333 ( 52914 PWs)   bands (ev):

   -25.1703 -12.9538  -9.2058  -7.1046  -0.8995   0.2125   0.8117   0.8952

     occupation numbers 
     1.0000   1.0000   1.0000   1.0000   0.0000   0.0000   0.0000   0.0000

          k = 0.0000 0.3333 0.3333 ( 52939 PWs)   bands (ev):

   -25.1703 -12.9538  -9.2059  -7.1046  -0.8518   0.2759   0.5305   0.8961

     occupation numbers 
     1.0000   1.0000   1.0000   1.0000   0.0000   0.0000   0.0000   0.0000

          k = 0.3333 0.3333 0.3333 ( 52995 PWs)   bands (ev):

   -25.1703 -12.9538  -9.2059  -7.1046  -0.8014   0.3023   0.6721   0.6855

     occupation numbers 
     1.0000   1.0000   1.0000   1.0000   0.0000   0.0000   0.0000   0.0000

          k = 0.3333 0.0000 0.0000 ( 52914 PWs)   bands (ev):

   -25.1703 -12.9538  -9.2059  -7.1046  -0.8898   0.1564   0.7847   1.0810

     occupation numbers 
     1.0000   1.0000   1.0000   1.0000   0.0000   0.0000   0.0000   0.0000

          k = 0.0000 0.3333 0.0000 ( 52914 PWs)   bands (ev):

   -25.1703 -12.9538  -9.2059  -7.1046  -0.8984   0.2075   0.8107   0.9111

     occupation numbers 
     1.0000   1.0000   1.0000   1.0000   0.0000   0.0000   0.0000   0.0000

          k = 0.0000-0.3333 0.3333 ( 52939 PWs)   bands (ev):

   -25.1703 -12.9538  -9.2059  -7.1046  -0.8525   0.3193   0.4550   0.9773

     occupation numbers 
     1.0000   1.0000   1.0000   1.0000   0.0000   0.0000   0.0000   0.0000

          k = 0.3333 0.0000-0.3333 ( 52939 PWs)   bands (ev):

   -25.1703 -12.9538  -9.2059  -7.1046  -0.8441   0.2994   0.4066   0.9605

     occupation numbers 
     1.0000   1.0000   1.0000   1.0000   0.0000   0.0000   0.0000   0.0000

          k =-0.3333 0.0000-0.3333 ( 52939 PWs)   bands (ev):

   -25.1703 -12.9538  -9.2059  -7.1046  -0.8431   0.2270   0.5227   0.9298

     occupation numbers 
     1.0000   1.0000   1.0000   1.0000   0.0000   0.0000   0.0000   0.0000

          k = 0.3333-0.3333 0.0000 ( 52939 PWs)   bands (ev):

   -25.1703 -12.9538  -9.2059  -7.1046  -0.8431   0.3058   0.3941   0.9607

     occupation numbers 
     1.0000   1.0000   1.0000   1.0000   0.0000   0.0000   0.0000   0.0000

          k =-0.3333-0.3333 0.0000 ( 52939 PWs)   bands (ev):

   -25.1703 -12.9538  -9.2059  -7.1046  -0.8420   0.2187   0.5329   0.9290

     occupation numbers 
     1.0000   1.0000   1.0000   1.0000   0.0000   0.0000   0.0000   0.0000

          k =-0.3333-0.3333 0.3333 ( 52995 PWs)   bands (ev):

   -25.1703 -12.9538  -9.2059  -7.1046  -0.8027   0.3627   0.5450   0.7067

     occupation numbers 
     1.0000   1.0000   1.0000   1.0000   0.0000   0.0000   0.0000   0.0000

          k =-0.3333 0.3333-0.3333 ( 52995 PWs)   bands (ev):

   -25.1703 -12.9538  -9.2059  -7.1046  -0.8029   0.3757   0.5284   0.7047

     occupation numbers 
     1.0000   1.0000   1.0000   1.0000   0.0000   0.0000   0.0000   0.0000

          k = 0.3333-0.3333-0.3333 ( 52995 PWs)   bands (ev):

   -25.1703 -12.9538  -9.2059  -7.1046  -0.8032   0.4462   0.4577   0.6823

     occupation numbers 
     1.0000   1.0000   1.0000   1.0000   0.0000   0.0000   0.0000   0.0000

     the Fermi energy is    -4.1160 ev

!    total energy              =     -44.04046451 Ry
     estimated scf accuracy    <          6.8E-13 Ry
     smearing contrib. (-TS)   =       0.00000000 Ry
     internal energy E=F+TS    =     -44.04046451 Ry

     The total energy is F=E-TS. E is the sum of the following terms:
     one-electron contribution =     -62.97154768 Ry
     hartree contribution      =      33.07076263 Ry
     xc contribution           =      -8.83342081 Ry
     ewald contribution        =       4.20294715 Ry
     one-center paw contrib.   =      -9.50920580 Ry
      -> PAW hartree energy AE =      28.39002043 Ry
      -> PAW hartree energy PS =     -28.25770905 Ry
      -> PAW xc energy AE      =     -17.02260888 Ry
      -> PAW xc energy PS      =       7.38109169 Ry
      -> total E_H with PAW    =      33.20307401 Ry
      -> total E_XC with PAW   =     -18.47493800 Ry

     convergence has been achieved in   7 iterations

     negative rho (up, down):  6.929E-04 0.000E+00

     Forces acting on atoms (cartesian axes, Ry/au):

     atom    1 type  2   force =     0.00040502   -0.00045742   -0.00037433
     atom    2 type  1   force =    -0.00046187    0.00005811    0.00004267
     atom    3 type  1   force =     0.00005685    0.00039931    0.00033166
     The non-local contrib.  to forces
     atom    1 type  2   force =     1.41515573   -1.54493828   -1.27231225
     atom    2 type  1   force =     0.03508927    0.07945895    0.06543360
     atom    3 type  1   force =    -0.10873859    0.00093785    0.00077161
     The ionic contribution  to forces
     atom    1 type  2   force =    -2.52584560    2.75787568    2.27118303
     atom    2 type  1   force =    -1.21833425   -2.73364774   -2.25126239
     atom    3 type  1   force =     3.74417986   -0.02422794   -0.01992064
     The local contribution  to forces
     atom    1 type  2   force =     1.12517350   -1.22876434   -1.01190322
     atom    2 type  1   force =     1.18278329    2.65424686    2.18587142
     atom    3 type  1   force =    -3.63538436    0.02368930    0.01948061
     The core correction contribution to forces
     atom    1 type  2   force =    -0.01407934    0.01537020    0.01265866
     atom    2 type  1   force =     0.00000000    0.00000000    0.00000000
     atom    3 type  1   force =     0.00000000    0.00000000    0.00000000
     The Hubbard contrib.    to forces
     atom    1 type  2   force =     0.00000000    0.00000000    0.00000000
     atom    2 type  1   force =     0.00000000    0.00000000    0.00000000
     atom    3 type  1   force =     0.00000000    0.00000000    0.00000000
     The SCF correction term to forces
     atom    1 type  2   force =     0.00000094   -0.00000085   -0.00000070
     atom    2 type  1   force =     0.00000004   -0.00000014   -0.00000011
     atom    3 type  1   force =     0.00000016   -0.00000007   -0.00000006

     Total force =     0.001002     Total SCF correction =     0.000001


     Computing stress (Cartesian axis) and pressure


     negative rho (up, down):  6.929E-04 0.000E+00
          total   stress  (Ry/bohr**3)                   (kbar)     P=       -0.08
  -0.00000051   0.00000008   0.00000007           -0.07        0.01        0.01
   0.00000008  -0.00000059   0.00000000            0.01       -0.09        0.00
   0.00000007   0.00000000  -0.00000055            0.01        0.00       -0.08

     kinetic stress (kbar)    255.14     -9.61     -7.91
                               -9.61    281.86    -21.74
                               -7.91    -21.74    290.36

     local   stress (kbar)   -589.42    -26.19    -21.57
                              -26.19   -518.32    -55.39
                              -21.57    -55.39   -496.23

     nonloc. stress (kbar)     47.33      0.03      0.03
                                0.03     48.42     -1.37
                                0.03     -1.37     48.96

     hartree stress (kbar)    251.80      5.20      4.28
                                5.20    236.92     11.77
                                4.28     11.77    232.18

     exc-cor stress (kbar)    -50.75      0.11      0.09
                                0.11    -51.08      0.28
                                0.09      0.28    -51.19

     corecor stress (kbar)     -9.23      0.02      0.01
                                0.02     -9.29      0.05
                                0.01      0.05     -9.31

     ewald   stress (kbar)     95.05     30.46     25.08
                               30.46     11.41     66.39
                               25.08     66.39    -14.84

     hubbard stress (kbar)      0.00      0.00      0.00
                                0.00      0.00      0.00
                                0.00      0.00      0.00

     DFT-D   stress (kbar)      0.00      0.00      0.00
                                0.00      0.00      0.00
                                0.00      0.00      0.00

     XDM     stress (kbar)      0.00      0.00      0.00
                                0.00      0.00      0.00
                                0.00      0.00      0.00

     dft-nl  stress (kbar)      0.00      0.00      0.00
                                0.00      0.00      0.00
                                0.00      0.00      0.00

     TS-vdW  stress (kbar)      0.00      0.00      0.00
                                0.00      0.00      0.00
                                0.00      0.00      0.00

     MDB     stress (kbar)      0.00      0.00      0.00
                                0.00      0.00      0.00
                                0.00      0.00      0.00

     3D-RISM stress (kbar)      0.00      0.00      0.00
                                0.00      0.00      0.00
                                0.00      0.00      0.00

     Energy error            =      3.2E-06 Ry
     Gradient error          =      4.6E-04 Ry/Bohr

     number of scf cycles    =   3
     number of bfgs steps    =   2

     energy             old  =     -44.0404613142 Ry
     energy             new  =     -44.0404645149 Ry

     CASE: energy            _new < energy            _old

     new trust radius        =       0.0011309792 bohr
     new conv_thr            =            6.0E-12 Ry


ATOMIC_POSITIONS (crystal)
O                0.5908743285        0.4990798354        0.4956488097
H                0.5628004658        0.4274018104        0.4366215742
H                0.6877762547        0.4956303422        0.4928086631



     Writing config-only to output data dir ./out/h2o.save/ :
     XML data file
     NEW-OLD atomic charge density approx. for the potential

     negative rho (up, down):  6.923E-04 0.000E+00

     total cpu time spent up to now is       46.6 secs

     Self-consistent Calculation

     iteration #  1     ecut=    60.00 Ry     beta= 0.40
     Davidson diagonalization with overlap

---- Real-time Memory Report at c_bands before calling an iterative solver
             0 MiB given to the printing process from OS
             0 MiB allocation reported by mallinfo(arena+hblkhd)
             0 MiB available memory on the node where the printing process lives
------------------
     ethr =  1.00E-06,  avg # of iterations =  2.0

     Threshold (ethr) on eigenvalues was too large:
     Diagonalizing with lowered threshold

     Davidson diagonalization with overlap

---- Real-time Memory Report at c_bands before calling an iterative solver
             0 MiB given to the printing process from OS
             0 MiB allocation reported by mallinfo(arena+hblkhd)
             0 MiB available memory on the node where the printing process lives
------------------
     ethr =  2.95E-09,  avg # of iterations =  2.0

     negative rho (up, down):  6.927E-04 0.000E+00

     total cpu time spent up to now is       49.1 secs

     total energy              =     -44.04046564 Ry
     estimated scf accuracy    <       0.00000021 Ry

     iteration #  2     ecut=    60.00 Ry     beta= 0.40
     Davidson diagonalization with overlap

---- Real-time Memory Report at c_bands before calling an iterative solver
             0 MiB given to the printing process from OS
             0 MiB allocation reported by mallinfo(arena+hblkhd)
             0 MiB available memory on the node where the printing process lives
------------------
     ethr =  2.57E-09,  avg # of iterations =  2.0

     negative rho (up, down):  6.928E-04 0.000E+00

     total cpu time spent up to now is       50.5 secs

     total energy              =     -44.04046567 Ry
     estimated scf accuracy    <       0.00000004 Ry

     iteration #  3     ecut=    60.00 Ry     beta= 0.40
     Davidson diagonalization with overlap

---- Real-time Memory Report at c_bands before calling an iterative solver
             0 MiB given to the printing process from OS
             0 MiB allocation reported by mallinfo(arena+hblkhd)
             0 MiB available memory on the node where the printing process lives
------------------
     ethr =  5.49E-10,  avg # of iterations =  1.0

     negative rho (up, down):  6.930E-04 0.000E+00

     total cpu time spent up to now is       51.7 secs

     total energy              =     -44.04046567 Ry
     estimated scf accuracy    <       0.00000001 Ry

     iteration #  4     ecut=    60.00 Ry     beta= 0.40
     Davidson diagonalization with overlap

---- Real-time Memory Report at c_bands before calling an iterative solver
             0 MiB given to the printing process from OS
             0 MiB allocation reported by mallinfo(arena+hblkhd)
             0 MiB available memory on the node where the printing process lives
------------------
     ethr =  1.38E-10,  avg # of iterations =  2.0

     negative rho (up, down):  6.931E-04 0.000E+00

     total cpu time spent up to now is       53.1 secs

     total energy              =     -44.04046567 Ry
     estimated scf accuracy    <          1.1E-09 Ry

     iteration #  5     ecut=    60.00 Ry     beta= 0.40
     Davidson diagonalization with overlap

---- Real-time Memory Report at c_bands before calling an iterative solver
             0 MiB given to the printing process from OS
             0 MiB allocation reported by mallinfo(arena+hblkhd)
             0 MiB available memory on the node where the printing process lives
------------------
     ethr =  1.44E-11,  avg # of iterations =  2.0

     negative rho (up, down):  6.931E-04 0.000E+00

     total cpu time spent up to now is       54.5 secs

     total energy              =     -44.04046567 Ry
     estimated scf accuracy    <          2.9E-10 Ry

     iteration #  6     ecut=    60.00 Ry     beta= 0.40
     Davidson diagonalization with overlap

---- Real-time Memory Report at c_bands before calling an iterative solver
             0 MiB given to the printing process from OS
             0 MiB allocation reported by mallinfo(arena+hblkhd)
             0 MiB available memory on the node where the printing process lives
------------------
     ethr =  3.64E-12,  avg # of iterations =  2.0

     negative rho (up, down):  6.931E-04 0.000E+00

     total cpu time spent up to now is       55.8 secs

     End of self-consistent calculation

          k = 0.0000 0.0000 0.0000 ( 52923 PWs)   bands (ev):

   -25.1700 -12.9611  -9.2002  -7.1044  -0.9528   0.4271   0.7279   1.0879

     occupation numbers 
     1.0000   1.0000   1.0000   1.0000   0.0000   0.0000   0.0000   0.0000

          k = 0.0000 0.0000 0.3333 ( 52914 PWs)   bands (ev):

   -25.1700 -12.9611  -9.2002  -7.1044  -0.8987   0.2126   0.8119   0.8954

     occupation numbers 
     1.0000   1.0000   1.0000   1.0000   0.0000   0.0000   0.0000   0.0000

          k = 0.0000 0.3333 0.3333 ( 52939 PWs)   bands (ev):

   -25.1700 -12.9611  -9.2002  -7.1044  -0.8510   0.2759   0.5305   0.8961

     occupation numbers 
     1.0000   1.0000   1.0000   1.0000   0.0000   0.0000   0.0000   0.0000

          k = 0.3333 0.3333 0.3333 ( 52995 PWs)   bands (ev):

   -25.1701 -12.9611  -9.2002  -7.1044  -0.8005   0.3023   0.6721   0.6855

     occupation numbers 
     1.0000   1.0000   1.0000   1.0000   0.0000   0.0000   0.0000   0.0000

          k = 0.3333 0.0000 0.0000 ( 52914 PWs)   bands (ev):

   -25.1700 -12.9611  -9.2002  -7.1044  -0.8890   0.1564   0.7849   1.0810

     occupation numbers 
     1.0000   1.0000   1.0000   1.0000   0.0000   0.0000   0.0000   0.0000

          k = 0.0000 0.3333 0.0000 ( 52914 PWs)   bands (ev):

   -25.1700 -12.9611  -9.2002  -7.1044  -0.8976   0.2076   0.8110   0.9113

     occupation numbers 
     1.0000   1.0000   1.0000   1.0000   0.0000   0.0000   0.0000   0.0000

          k = 0.0000-0.3333 0.3333 ( 52939 PWs)   bands (ev):

   -25.1700 -12.9611  -9.2002  -7.1044  -0.8517   0.3194   0.4549   0.9773

     occupation numbers 
     1.0000   1.0000   1.0000   1.0000   0.0000   0.0000   0.0000   0.0000

          k = 0.3333 0.0000-0.3333 ( 52939 PWs)   bands (ev):

   -25.1700 -12.9611  -9.2002  -7.1044  -0.8432   0.2994   0.4066   0.9605

     occupation numbers 
     1.0000   1.0000   1.0000   1.0000   0.0000   0.0000   0.0000   0.0000

          k =-0.3333 0.0000-0.3333 ( 52939 PWs)   bands (ev):

   -25.1700 -12.9611  -9.2002  -7.1044  -0.8423   0.2270   0.5227   0.9298

     occupation numbers 
     1.0000   1.0000   1.0000   1.0000   0.0000   0.0000   0.0000   0.0000

          k = 0.3333-0.3333 0.0000 ( 52939 PWs)   bands (ev):

   -25.1700 -12.9611  -9.2002  -7.1044  -0.8423   0.3058   0.3941   0.9606

     occupation numbers 
     1.0000   1.0000   1.0000   1.0000   0.0000   0.0000   0.0000   0.0000

          k =-0.3333-0.3333 0.0000 ( 52939 PWs)   bands (ev):

   -25.1700 -12.9611  -9.2002  -7.1044  -0.8411   0.2187   0.5328   0.9289

     occupation numbers 
     1.0000   1.0000   1.0000   1.0000   0.0000   0.0000   0.0000   0.0000

          k =-0.3333-0.3333 0.3333 ( 52995 PWs)   bands (ev):

   -25.1701 -12.9611  -9.2002  -7.1044  -0.8018   0.3627   0.5450   0.7067

     occupation numbers 
     1.0000   1.0000   1.0000   1.0000   0.0000   0.0000   0.0000   0.0000

          k =-0.3333 0.3333-0.3333 ( 52995 PWs)   bands (ev):

   -25.1701 -12.9611  -9.2002  -7.1044  -0.8020   0.3757   0.5284   0.7046

     occupation numbers 
     1.0000   1.0000   1.0000   1.0000   0.0000   0.0000   0.0000   0.0000

          k = 0.3333-0.3333-0.3333 ( 52995 PWs)   bands (ev):

   -25.1701 -12.9611  -9.2002  -7.1044  -0.8023   0.4462   0.4577   0.6822

     occupation numbers 
     1.0000   1.0000   1.0000   1.0000   0.0000   0.0000   0.0000   0.0000

     the Fermi energy is    -4.1160 ev

!    total energy              =     -44.04046567 Ry
     estimated scf accuracy    <          3.6E-12 Ry
     smearing contrib. (-TS)   =       0.00000000 Ry
     internal energy E=F+TS    =     -44.04046567 Ry

     The total energy is F=E-TS. E is the sum of the following terms:
     one-electron contribution =     -62.97497641 Ry
     hartree contribution      =      33.07250885 Ry
     xc contribution           =      -8.83371137 Ry
     ewald contribution        =       4.20485423 Ry
     one-center paw contrib.   =      -9.50914098 Ry
      -> PAW hartree energy AE =      28.39463390 Ry
      -> PAW hartree energy PS =     -28.26226497 Ry
      -> PAW xc energy AE      =     -17.02330487 Ry
      -> PAW xc energy PS      =       7.38179496 Ry
      -> total E_H with PAW    =      33.20487778 Ry
      -> total E_XC with PAW   =     -18.47522128 Ry

     convergence has been achieved in   6 iterations

     negative rho (up, down):  6.931E-04 0.000E+00

     Forces acting on atoms (cartesian axes, Ry/au):

     atom    1 type  2   force =    -0.00004702    0.00001194    0.00001216
     atom    2 type  1   force =    -0.00020427   -0.00015277   -0.00013100
     atom    3 type  1   force =     0.00025129    0.00014084    0.00011883
     The non-local contrib.  to forces
     atom    1 type  2   force =     1.41436165   -1.54394336   -1.27150684
     atom    2 type  1   force =     0.03523614    0.07947796    0.06545006
     atom    3 type  1   force =    -0.10881603    0.00083156    0.00068400
     The ionic contribution  to forces
     atom    1 type  2   force =    -2.52359076    2.75510053    2.26892251
     atom    2 type  1   force =    -1.22183677   -2.73362892   -2.25127459
     atom    3 type  1   force =     3.74542753   -0.02147161   -0.01764792
     The local contribution  to forces
     atom    1 type  2   force =     1.12325572   -1.22650833   -1.01005648
     atom    2 type  1   force =     1.18639668    2.65399758    2.18569302
     atom    3 type  1   force =    -3.63635947    0.02078050    0.01708243
     The core correction contribution to forces
     atom    1 type  2   force =    -0.01407148    0.01536061    0.01265092
     atom    2 type  1   force =     0.00000000    0.00000000    0.00000000
     atom    3 type  1   force =     0.00000000    0.00000000    0.00000000
     The Hubbard contrib.    to forces
     atom    1 type  2   force =     0.00000000    0.00000000    0.00000000
     atom    2 type  1   force =     0.00000000    0.00000000    0.00000000
     atom    3 type  1   force =     0.00000000    0.00000000    0.00000000
     The SCF correction term to forces
     atom    1 type  2   force =    -0.00000173    0.00000211    0.00000174
     atom    2 type  1   force =     0.00000010    0.00000023    0.00000019
     atom    3 type  1   force =    -0.00000031    0.00000001    0.00000000

     Total force =     0.000426     Total SCF correction =     0.000003


     Computing stress (Cartesian axis) and pressure


     negative rho (up, down):  6.931E-04 0.000E+00
          total   stress  (Ry/bohr**3)                   (kbar)     P=       -0.08
  -0.00000048   0.00000003   0.00000002           -0.07        0.00        0.00
   0.00000003  -0.00000054   0.00000004            0.00       -0.08        0.01
   0.00000002   0.00000004  -0.00000052            0.00        0.01       -0.08

     kinetic stress (kbar)    255.13     -9.67     -7.97
                               -9.67    281.89    -21.72
                               -7.97    -21.72    290.38

     local   stress (kbar)   -589.55    -26.39    -21.73
                              -26.39   -518.29    -55.35
                              -21.73    -55.35   -496.22

     nonloc. stress (kbar)     47.32      0.03      0.02
                                0.03     48.42     -1.37
                                0.02     -1.37     48.96

     hartree stress (kbar)    251.83      5.24      4.32
                                5.24    236.92     11.76
                                4.32     11.76    232.19

     exc-cor stress (kbar)    -50.75      0.11      0.09
                                0.11    -51.08      0.28
                                0.09      0.28    -51.19

     corecor stress (kbar)     -9.23      0.02      0.01
                                0.02     -9.29      0.05
                                0.01      0.05     -9.31

     ewald   stress (kbar)     95.17     30.66     25.25
                               30.66     11.36     66.35
                               25.25     66.35    -14.87

     hubbard stress (kbar)      0.00      0.00      0.00
                                0.00      0.00      0.00
                                0.00      0.00      0.00

     DFT-D   stress (kbar)      0.00      0.00      0.00
                                0.00      0.00      0.00
                                0.00      0.00      0.00

     XDM     stress (kbar)      0.00      0.00      0.00
                                0.00      0.00      0.00
                                0.00      0.00      0.00

     dft-nl  stress (kbar)      0.00      0.00      0.00
                                0.00      0.00      0.00
                                0.00      0.00      0.00

     TS-vdW  stress (kbar)      0.00      0.00      0.00
                                0.00      0.00      0.00
                                0.00      0.00      0.00

     MDB     stress (kbar)      0.00      0.00      0.00
                                0.00      0.00      0.00
                                0.00      0.00      0.00

     3D-RISM stress (kbar)      0.00      0.00      0.00
                                0.00      0.00      0.00
                                0.00      0.00      0.00

     Energy error            =      1.2E-06 Ry
     Gradient error          =      2.5E-04 Ry/Bohr

     number of scf cycles    =   4
     number of bfgs steps    =   3

     energy             old  =     -44.0404645149 Ry
     energy             new  =     -44.0404656712 Ry

     CASE: energy            _new < energy            _old

     new trust radius        =       0.0006447133 bohr
     new conv_thr            =            6.0E-12 Ry


ATOMIC_POSITIONS (crystal)
O                0.5908837054        0.4990661997        0.4956377980
H                0.5627722345        0.4273936272        0.4366143542
H                0.6877951091        0.4956521611        0.4928268949



     Writing config-only to output data dir ./out/h2o.save/ :
     XML data file
     NEW-OLD atomic charge density approx. for the potential

     negative rho (up, down):  6.928E-04 0.000E+00

     total cpu time spent up to now is       57.6 secs

     Self-consistent Calculation

     iteration #  1     ecut=    60.00 Ry     beta= 0.40
     Davidson diagonalization with overlap

---- Real-time Memory Report at c_bands before calling an iterative solver
             0 MiB given to the printing process from OS
             0 MiB allocation reported by mallinfo(arena+hblkhd)
             0 MiB available memory on the node where the printing process lives
------------------
     ethr =  1.00E-06,  avg # of iterations =  2.0

     Threshold (ethr) on eigenvalues was too large:
     Diagonalizing with lowered threshold

     Davidson diagonalization with overlap

---- Real-time Memory Report at c_bands before calling an iterative solver
             0 MiB given to the printing process from OS
             0 MiB allocation reported by mallinfo(arena+hblkhd)
             0 MiB available memory on the node where the printing process lives
------------------
     ethr =  2.64E-10,  avg # of iterations =  3.0

     negative rho (up, down):  6.929E-04 0.000E+00

     total cpu time spent up to now is       60.3 secs

     total energy              =     -44.04046585 Ry
     estimated scf accuracy    <       0.00000003 Ry

     iteration #  2     ecut=    60.00 Ry     beta= 0.40
     Davidson diagonalization with overlap

---- Real-time Memory Report at c_bands before calling an iterative solver
             0 MiB given to the printing process from OS
             0 MiB allocation reported by mallinfo(arena+hblkhd)
             0 MiB available memory on the node where the printing process lives
------------------
     ethr =  3.43E-10,  avg # of iterations =  1.0

     negative rho (up, down):  6.930E-04 0.000E+00

     total cpu time spent up to now is       61.5 secs

     total energy              =     -44.04046586 Ry
     estimated scf accuracy    <          8.0E-09 Ry

     iteration #  3     ecut=    60.00 Ry     beta= 0.40
     Davidson diagonalization with overlap

---- Real-time Memory Report at c_bands before calling an iterative solver
             0 MiB given to the printing process from OS
             0 MiB allocation reported by mallinfo(arena+hblkhd)
             0 MiB available memory on the node where the printing process lives
------------------
     ethr =  1.00E-10,  avg # of iterations =  1.0

     negative rho (up, down):  6.931E-04 0.000E+00

     total cpu time spent up to now is       62.7 secs

     total energy              =     -44.04046585 Ry
     estimated scf accuracy    <          7.7E-10 Ry

     iteration #  4     ecut=    60.00 Ry     beta= 0.40
     Davidson diagonalization with overlap

---- Real-time Memory Report at c_bands before calling an iterative solver
             0 MiB given to the printing process from OS
             0 MiB allocation reported by mallinfo(arena+hblkhd)
             0 MiB available memory on the node where the printing process lives
------------------
     ethr =  9.65E-12,  avg # of iterations =  2.0

     negative rho (up, down):  6.931E-04 0.000E+00

     total cpu time spent up to now is       64.0 secs

     total energy              =     -44.04046585 Ry
     estimated scf accuracy    <          5.8E-11 Ry

     iteration #  5     ecut=    60.00 Ry     beta= 0.40
     Davidson diagonalization with overlap

---- Real-time Memory Report at c_bands before calling an iterative solver
             0 MiB given to the printing process from OS
             0 MiB allocation reported by mallinfo(arena+hblkhd)
             0 MiB available memory on the node where the printing process lives
------------------
     ethr =  7.27E-13,  avg # of iterations =  2.0

     negative rho (up, down):  6.931E-04 0.000E+00

     total cpu time spent up to now is       65.4 secs

     total energy              =     -44.04046585 Ry
     estimated scf accuracy    <          1.5E-11 Ry

     iteration #  6     ecut=    60.00 Ry     beta= 0.40
     Davidson diagonalization with overlap

---- Real-time Memory Report at c_bands before calling an iterative solver
             0 MiB given to the printing process from OS
             0 MiB allocation reported by mallinfo(arena+hblkhd)
             0 MiB available memory on the node where the printing process lives
------------------
     ethr =  1.85E-13,  avg # of iterations =  2.0

     negative rho (up, down):  6.931E-04 0.000E+00

     total cpu time spent up to now is       66.8 secs

     End of self-consistent calculation

          k = 0.0000 0.0000 0.0000 ( 52923 PWs)   bands (ev):

   -25.1684 -12.9629  -9.1977  -7.1040  -0.9529   0.4271   0.7277   1.0877

     occupation numbers 
     1.0000   1.0000   1.0000   1.0000   0.0000   0.0000   0.0000   0.0000

          k = 0.0000 0.0000 0.3333 ( 52914 PWs)   bands (ev):

   -25.1685 -12.9629  -9.1977  -7.1040  -0.8988   0.2126   0.8117   0.8953

     occupation numbers 
     1.0000   1.0000   1.0000   1.0000   0.0000   0.0000   0.0000   0.0000

          k = 0.0000 0.3333 0.3333 ( 52939 PWs)   bands (ev):

   -25.1685 -12.9629  -9.1977  -7.1041  -0.8511   0.2758   0.5305   0.8959

     occupation numbers 
     1.0000   1.0000   1.0000   1.0000   0.0000   0.0000   0.0000   0.0000

          k = 0.3333 0.3333 0.3333 ( 52995 PWs)   bands (ev):

   -25.1685 -12.9629  -9.1977  -7.1041  -0.8006   0.3021   0.6721   0.6855

     occupation numbers 
     1.0000   1.0000   1.0000   1.0000   0.0000   0.0000   0.0000   0.0000

          k = 0.3333 0.0000 0.0000 ( 52914 PWs)   bands (ev):

   -25.1685 -12.9629  -9.1977  -7.1040  -0.8891   0.1563   0.7848   1.0808

     occupation numbers 
     1.0000   1.0000   1.0000   1.0000   0.0000   0.0000   0.0000   0.0000

          k = 0.0000 0.3333 0.0000 ( 52914 PWs)   bands (ev):

   -25.1685 -12.9629  -9.1977  -7.1040  -0.8977   0.2075   0.8109   0.9112

     occupation numbers 
     1.0000   1.0000   1.0000   1.0000   0.0000   0.0000   0.0000   0.0000

          k = 0.0000-0.3333 0.3333 ( 52939 PWs)   bands (ev):

   -25.1685 -12.9629  -9.1977  -7.1041  -0.8517   0.3194   0.4548   0.9772

     occupation numbers 
     1.0000   1.0000   1.0000   1.0000   0.0000   0.0000   0.0000   0.0000

          k = 0.3333 0.0000-0.3333 ( 52939 PWs)   bands (ev):

   -25.1685 -12.9629  -9.1977  -7.1040  -0.8433   0.2993   0.4065   0.9604

     occupation numbers 
     1.0000   1.0000   1.0000   1.0000   0.0000   0.0000   0.0000   0.0000

          k =-0.3333 0.0000-0.3333 ( 52939 PWs)   bands (ev):

   -25.1685 -12.9629  -9.1977  -7.1040  -0.8423   0.2268   0.5227   0.9297

     occupation numbers 
     1.0000   1.0000   1.0000   1.0000   0.0000   0.0000   0.0000   0.0000

          k = 0.3333-0.3333 0.0000 ( 52939 PWs)   bands (ev):

   -25.1685 -12.9629  -9.1977  -7.1040  -0.8423   0.3058   0.3940   0.9605

     occupation numbers 
     1.0000   1.0000   1.0000   1.0000   0.0000   0.0000   0.0000   0.0000

          k =-0.3333-0.3333 0.0000 ( 52939 PWs)   bands (ev):

   -25.1685 -12.9629  -9.1977  -7.1040  -0.8412   0.2186   0.5328   0.9288

     occupation numbers 
     1.0000   1.0000   1.0000   1.0000   0.0000   0.0000   0.0000   0.0000

          k =-0.3333-0.3333 0.3333 ( 52995 PWs)   bands (ev):

   -25.1685 -12.9629  -9.1977  -7.1041  -0.8019   0.3626   0.5450   0.7066

     occupation numbers 
     1.0000   1.0000   1.0000   1.0000   0.0000   0.0000   0.0000   0.0000

          k =-0.3333 0.3333-0.3333 ( 52995 PWs)   bands (ev):

   -25.1685 -12.9629  -9.1977  -7.1041  -0.8020   0.3756   0.5283   0.7046

     occupation numbers 
     1.0000   1.0000   1.0000   1.0000   0.0000   0.0000   0.0000   0.0000

          k = 0.3333-0.3333-0.3333 ( 52995 PWs)   bands (ev):

   -25.1685 -12.9629  -9.1977  -7.1041  -0.8023   0.4462   0.4575   0.6822

     occupation numbers 
     1.0000   1.0000   1.0000   1.0000   0.0000   0.0000   0.0000   0.0000

     the Fermi energy is    -4.1157 ev

!    total energy              =     -44.04046586 Ry
     estimated scf accuracy    <          8.9E-13 Ry
     smearing contrib. (-TS)   =       0.00000000 Ry
     internal energy E=F+TS    =     -44.04046586 Ry

     The total energy is F=E-TS. E is the sum of the following terms:
     one-electron contribution =     -62.97332899 Ry
     hartree contribution      =      33.07180029 Ry
     xc contribution           =      -8.83359049 Ry
     ewald contribution        =       4.20378110 Ry
     one-center paw contrib.   =      -9.50912776 Ry
      -> PAW hartree energy AE =      28.39387286 Ry
      -> PAW hartree energy PS =     -28.26149622 Ry
      -> PAW xc energy AE      =     -17.02317821 Ry
      -> PAW xc energy PS      =       7.38167381 Ry
      -> total E_H with PAW    =      33.20417693 Ry
      -> total E_XC with PAW   =     -18.47509490 Ry

     convergence has been achieved in   6 iterations

     negative rho (up, down):  6.931E-04 0.000E+00

     Forces acting on atoms (cartesian axes, Ry/au):

     atom    1 type  2   force =    -0.00003368    0.00005474    0.00004738
     atom    2 type  1   force =    -0.00001605   -0.00008363   -0.00007404
     atom    3 type  1   force =     0.00004973    0.00002889    0.00002666
     The non-local contrib.  to forces
     atom    1 type  2   force =     1.41408732   -1.54350370   -1.27115818
     atom    2 type  1   force =     0.03528095    0.07945173    0.06542925
     atom    3 type  1   force =    -0.10878818    0.00078274    0.00064372
     The ionic contribution  to forces
     atom    1 type  2   force =    -2.52189256    2.75319999    2.26738129
     atom    2 type  1   force =    -1.22290887   -2.73297602   -2.25076367
     atom    3 type  1   force =     3.74480143   -0.02022397   -0.01661762
     The local contribution  to forces
     atom    1 type  2   force =     1.12184314   -1.22500036   -1.00882534
     atom    2 type  1   force =     1.18761189    2.65344086    2.18526052
     atom    3 type  1   force =    -3.63596372    0.01947020    0.01600061
     The core correction contribution to forces
     atom    1 type  2   force =    -0.01407177    0.01535889    0.01264964
     atom    2 type  1   force =     0.00000000    0.00000000    0.00000000
     atom    3 type  1   force =     0.00000000    0.00000000    0.00000000
     The Hubbard contrib.    to forces
     atom    1 type  2   force =     0.00000000    0.00000000    0.00000000
     atom    2 type  1   force =     0.00000000    0.00000000    0.00000000
     atom    3 type  1   force =     0.00000000    0.00000000    0.00000000
     The SCF correction term to forces
     atom    1 type  2   force =     0.00000021   -0.00000007   -0.00000003
     atom    2 type  1   force =     0.00000001   -0.00000019   -0.00000015
     atom    3 type  1   force =     0.00000022   -0.00000006   -0.00000005

     Total force =     0.000152     Total SCF correction =     0.000000


     Computing stress (Cartesian axis) and pressure


     negative rho (up, down):  6.931E-04 0.000E+00
          total   stress  (Ry/bohr**3)                   (kbar)     P=       -0.08
  -0.00000055  -0.00000001  -0.00000001           -0.08       -0.00       -0.00
  -0.00000001  -0.00000055   0.00000003           -0.00       -0.08        0.00
  -0.00000001   0.00000003  -0.00000053           -0.00        0.00       -0.08

     kinetic stress (kbar)    255.12     -9.70     -7.99
                               -9.70    281.89    -21.72
                               -7.99    -21.72    290.38

     local   stress (kbar)   -589.57    -26.47    -21.80
                              -26.47   -518.26    -55.34
                              -21.80    -55.34   -496.19

     nonloc. stress (kbar)     47.32      0.03      0.02
                                0.03     48.42     -1.37
                                0.02     -1.37     48.95

     hartree stress (kbar)    251.84      5.26      4.33
                                5.26    236.91     11.76
                                4.33     11.76    232.18

     exc-cor stress (kbar)    -50.75      0.11      0.09
                                0.11    -51.08      0.28
                                0.09      0.28    -51.19

     corecor stress (kbar)     -9.23      0.02      0.01
                                0.02     -9.29      0.05
                                0.01      0.05     -9.31

     ewald   stress (kbar)     95.19     30.75     25.32
                               30.75     11.34     66.33
                               25.32     66.33    -14.89

     hubbard stress (kbar)      0.00      0.00      0.00
                                0.00      0.00      0.00
                                0.00      0.00      0.00

     DFT-D   stress (kbar)      0.00      0.00      0.00
                                0.00      0.00      0.00
                                0.00      0.00      0.00

     XDM     stress (kbar)      0.00      0.00      0.00
                                0.00      0.00      0.00
                                0.00      0.00      0.00

     dft-nl  stress (kbar)      0.00      0.00      0.00
                                0.00      0.00      0.00
                                0.00      0.00      0.00

     TS-vdW  stress (kbar)      0.00      0.00      0.00
                                0.00      0.00      0.00
                                0.00      0.00      0.00

     MDB     stress (kbar)      0.00      0.00      0.00
                                0.00      0.00      0.00
                                0.00      0.00      0.00

     3D-RISM stress (kbar)      0.00      0.00      0.00
                                0.00      0.00      0.00
                                0.00      0.00      0.00

     Energy error            =      1.8E-07 Ry
     Gradient error          =      8.4E-05 Ry/Bohr

     bfgs converged in   5 scf cycles and   4 bfgs steps
     (criteria: energy <  3.0E-05 Ry, force <  1.0E-04 Ry/Bohr)

     End of BFGS Geometry Optimization

     Final energy             =     -44.0404658553 Ry

     File ./out/h2o.bfgs deleted, as requested
Begin final coordinates

ATOMIC_POSITIONS (crystal)
O                0.5908837054        0.4990661997        0.4956377980
H                0.5627722345        0.4273936272        0.4366143542
H                0.6877951091        0.4956521611        0.4928268949
End final coordinates



     Writing all to output data dir ./out/h2o.save/ :
     XML data file, charge density, pseudopotentials, collected wavefunctions

     init_run     :      0.87s CPU      0.99s WALL (       1 calls)
     electrons    :     58.33s CPU     58.88s WALL (       5 calls)
     update_pot   :      0.66s CPU      0.66s WALL (       4 calls)
     forces       :      1.89s CPU      1.91s WALL (       5 calls)
     stress       :      5.25s CPU      5.14s WALL (       5 calls)

     Called by init_run:
     wfcinit      :      0.35s CPU      0.35s WALL (       1 calls)
     wfcinit:atom :      0.01s CPU      0.01s WALL (      14 calls)
     wfcinit:wfcr :      0.32s CPU      0.32s WALL (      14 calls)
     potinit      :      0.16s CPU      0.18s WALL (       1 calls)
     hinit0       :      0.06s CPU      0.06s WALL (       1 calls)

     Called by electrons:
     c_bands      :     38.70s CPU     39.04s WALL (      41 calls)
     sum_band     :     10.50s CPU     10.56s WALL (      41 calls)
     v_of_rho     :      5.08s CPU      5.12s WALL (      42 calls)
     v_h          :      0.47s CPU      0.47s WALL (      42 calls)
     v_xc         :      5.68s CPU      5.72s WALL (      52 calls)
     newd         :      3.04s CPU      3.14s WALL (      42 calls)
     PAW_pot      :      0.49s CPU      0.50s WALL (      46 calls)
     mix_rho      :      0.89s CPU      0.92s WALL (      41 calls)

     Called by c_bands:
     init_us_2    :      1.01s CPU      1.01s WALL (    1358 calls)
     cegterg      :     37.69s CPU     38.03s WALL (     574 calls)

     Called by sum_band:
     sum_band:wei :      0.00s CPU      0.00s WALL (      41 calls)
     sum_band:loo :      6.79s CPU      6.83s WALL (      41 calls)
     sum_band:buf :      0.05s CPU      0.06s WALL (     574 calls)
     sum_band:ini :      0.43s CPU      0.43s WALL (     574 calls)
     sum_band:cal :      0.75s CPU      0.75s WALL (     630 calls)
     sum_band:bec :      0.00s CPU      0.00s WALL (     630 calls)
     addusdens    :      2.95s CPU      2.97s WALL (      41 calls)
                                        0.00s GPU  (      41 calls)
     addusd:skk   :      0.04s CPU      0.04s WALL (      82 calls)
                                        0.00s GPU  (      82 calls)

     Called by *egterg:
     cdiaghg      :      0.12s CPU      0.12s WALL (    1942 calls)
     cegterg:over :      3.23s CPU      3.25s WALL (    1480 calls)
     cegterg:upda :      1.12s CPU      1.19s WALL (    1480 calls)
     cegterg:last :      1.81s CPU      1.82s WALL (    1137 calls)
     h_psi        :     28.62s CPU     28.82s WALL (    2068 calls)
     s_psi        :      1.00s CPU      1.03s WALL (    2068 calls)
     g_psi        :      0.07s CPU      0.07s WALL (    1480 calls)

     Called by h_psi:
     h_psi:calbec :      2.02s CPU      2.04s WALL (    2068 calls)
     vloc_psi     :     25.38s CPU     25.49s WALL (    2068 calls)
                                        0.00s GPU  (    2068 calls)
     add_vuspsi   :      1.09s CPU      1.15s WALL (    2068 calls)

     General routines
     calbec       :      4.14s CPU      4.17s WALL (    3888 calls)
     fft          :      6.62s CPU      6.65s WALL (     669 calls)
     ffts         :      0.20s CPU      0.20s WALL (      83 calls)
     fftw         :     27.79s CPU     27.90s WALL (   28158 calls)
     interpolate  :      0.52s CPU      0.52s WALL (      42 calls)

     Parallel routines

     PAW routines
     PAW_pot      :      0.49s CPU      0.50s WALL (      46 calls)

     PWSCF        :   1m 7.66s CPU   1m 8.35s WALL


   This run was terminated on:  18:15: 6  27Apr2026            

=------------------------------------------------------------------------------=
   JOB DONE.
=------------------------------------------------------------------------------=
