
     Program PWSCF v.7.5 starts on 27Apr2026 at 17:35: 3 

     This program is part of the open-source Quantum ESPRESSO suite
     for quantum simulation of materials; please cite
         "P. Giannozzi et al., J. Phys.:Condens. Matter 21 395502 (2009);
         "P. Giannozzi et al., J. Phys.:Condens. Matter 29 465901 (2017);
         "P. Giannozzi et al., J. Chem. Phys. 152 154105 (2020);
          URL http://www.quantum-espresso.org", 
     in publications or presentations arising from this work. More details at
     http://www.quantum-espresso.org/quote

     Parallel version (MPI), running on     1 processors

     MPI processes distributed on     1 nodes
     0 MiB available memory on the printing compute node when the environment starts

     Waiting for input...
     Reading input from standard input

     Current dimensions of program PWSCF are:
     Max number of different atomic species (ntypx) = 10
     Max number of k-points (npk) =  40000
     Max angular momentum in pseudopotentials (lmaxx) =  4
     file O.pbe-n-kjpaw_psl.0.1.UPF: wavefunction(s)  2P renormalized

     Subspace diagonalization in iterative solution of the eigenvalue problem:
     a serial algorithm will be used


     G-vector sticks info
     --------------------
     sticks:   dense  smooth     PW     G-vecs:    dense   smooth      PW
     Sum       13637    6817   1789              1198487   423701   57051

     Using Slab Decomposition



     bravais-lattice index     =            0
     lattice parameter (alat)  =      18.8973  a.u.
     unit-cell volume          =    6748.3345 (a.u.)^3
     number of atoms/cell      =            3
     number of atomic types    =            2
     number of electrons       =         8.00
     number of Kohn-Sham states=            8
     kinetic-energy cutoff     =      60.0000  Ry
     charge density cutoff     =     480.0000  Ry
     scf convergence threshold =      6.0E-10
     mixing beta               =       0.4000
     number of iterations used =            8  plain     mixing
     Exchange-correlation= SLA  PW   PBX  PBC
                           (   1   4   3   4   0   0   0)

     celldm(1)=  18.897261  celldm(2)=   0.000000  celldm(3)=   0.000000
     celldm(4)=   0.000000  celldm(5)=   0.000000  celldm(6)=   0.000000

     crystal axes: (cart. coord. in units of alat)
               a(1) = (   1.000000   0.000000   0.000000 )  
               a(2) = (   0.000000   1.000000   0.000000 )  
               a(3) = (   0.000000   0.000000   1.000000 )  

     reciprocal axes: (cart. coord. in units 2 pi/alat)
               b(1) = (  1.000000  0.000000  0.000000 )  
               b(2) = (  0.000000  1.000000  0.000000 )  
               b(3) = (  0.000000  0.000000  1.000000 )  


     PseudoPot. # 1 for H  read from file:
     ./pseudo/H.pbe-rrkjus_psl.1.0.0.UPF
     MD5 check sum: f52b6d4d1c606e5624b1dc7b2218f220
     Pseudo is Ultrasoft, Zval =  1.0
     Generated using "atomic" code by A. Dal Corso  v.5.1
     Using radial grid of  929 points,  2 beta functions with: 
                l(1) =   0
                l(2) =   0
     Q(r) pseudized with 0 coefficients 


     PseudoPot. # 2 for O  read from file:
     ./pseudo/O.pbe-n-kjpaw_psl.0.1.UPF
     MD5 check sum: 0234752ac141de4415c5fc33072bef88
     Pseudo is Projector augmented-wave + core cor, Zval =  6.0
     Generated using "atomic" code by A. Dal Corso  v.5.0.99 svn rev. 10869
     Shape of augmentation charge: BESSEL
     Using radial grid of 1095 points,  4 beta functions with: 
                l(1) =   0
                l(2) =   0
                l(3) =   1
                l(4) =   1
     Q(r) pseudized with 0 coefficients 


     atomic species   valence    mass     pseudopotential
     H                 1.00     1.00794     H ( 1.00)
     O                 6.00    15.99940     O ( 1.00)

     No symmetry found


                                    s                        frac. trans.

      isym =  1     identity                                     

 cryst.   s( 1) = (     1          0          0      )
                  (     0          1          0      )
                  (     0          0          1      )

 cart.    s( 1) = (  1.0000000  0.0000000  0.0000000 )
                  (  0.0000000  1.0000000  0.0000000 )
                  (  0.0000000  0.0000000  1.0000000 )


   Cartesian axes

     site n.     atom                  positions (alat units)
         1        O      tau(   1) = (   0.5908490   0.4991110   0.4956740  )
         2        H      tau(   2) = (   0.5629640   0.4274740   0.4366820  )
         3        H      tau(   3) = (   0.6876380   0.4955270   0.4927230  )

   Crystallographic axes

     site n.     atom                  positions (cryst. coord.)
         1        O      tau(   1) = (  0.5908490  0.4991110  0.4956740  )
         2        H      tau(   2) = (  0.5629640  0.4274740  0.4366820  )
         3        H      tau(   3) = (  0.6876380  0.4955270  0.4927230  )

     number of k points=    14  Marzari-Vanderbilt smearing, width (Ry)=  0.0200
                       cart. coord. in units 2pi/alat
        k(    1) = (   0.0000000   0.0000000   0.0000000), wk =   0.0740741
        k(    2) = (   0.0000000   0.0000000   0.3333333), wk =   0.1481481
        k(    3) = (   0.0000000   0.3333333   0.3333333), wk =   0.1481481
        k(    4) = (   0.3333333   0.3333333   0.3333333), wk =   0.1481481
        k(    5) = (   0.3333333   0.0000000   0.0000000), wk =   0.1481481
        k(    6) = (   0.0000000   0.3333333   0.0000000), wk =   0.1481481
        k(    7) = (   0.0000000  -0.3333333   0.3333333), wk =   0.1481481
        k(    8) = (   0.3333333   0.0000000  -0.3333333), wk =   0.1481481
        k(    9) = (  -0.3333333   0.0000000  -0.3333333), wk =   0.1481481
        k(   10) = (   0.3333333  -0.3333333   0.0000000), wk =   0.1481481
        k(   11) = (  -0.3333333  -0.3333333   0.0000000), wk =   0.1481481
        k(   12) = (  -0.3333333  -0.3333333   0.3333333), wk =   0.1481481
        k(   13) = (  -0.3333333   0.3333333  -0.3333333), wk =   0.1481481
        k(   14) = (   0.3333333  -0.3333333  -0.3333333), wk =   0.1481481

                       cryst. coord.
        k(    1) = (   0.0000000   0.0000000   0.0000000), wk =   0.0740741
        k(    2) = (   0.0000000   0.0000000   0.3333333), wk =   0.1481481
        k(    3) = (   0.0000000   0.3333333   0.3333333), wk =   0.1481481
        k(    4) = (   0.3333333   0.3333333   0.3333333), wk =   0.1481481
        k(    5) = (   0.3333333   0.0000000   0.0000000), wk =   0.1481481
        k(    6) = (   0.0000000   0.3333333   0.0000000), wk =   0.1481481
        k(    7) = (   0.0000000  -0.3333333   0.3333333), wk =   0.1481481
        k(    8) = (   0.3333333   0.0000000  -0.3333333), wk =   0.1481481
        k(    9) = (  -0.3333333   0.0000000  -0.3333333), wk =   0.1481481
        k(   10) = (   0.3333333  -0.3333333   0.0000000), wk =   0.1481481
        k(   11) = (  -0.3333333  -0.3333333   0.0000000), wk =   0.1481481
        k(   12) = (  -0.3333333  -0.3333333   0.3333333), wk =   0.1481481
        k(   13) = (  -0.3333333   0.3333333  -0.3333333), wk =   0.1481481
        k(   14) = (   0.3333333  -0.3333333  -0.3333333), wk =   0.1481481

     Dense  grid:  1198487 G-vectors     FFT dimensions: ( 135, 135, 135)

     Smooth grid:   423701 G-vectors     FFT dimensions: (  96,  96,  96)

     Dynamical RAM for                 wfc:       6.47 MB

     Dynamical RAM for     wfc (w. buffer):      96.98 MB

     Dynamical RAM for           str. fact:      36.57 MB

     Dynamical RAM for           local pot:       0.00 MB

     Dynamical RAM for          nlocal pot:       9.70 MB

     Dynamical RAM for                qrad:       1.00 MB

     Dynamical RAM for          rho,v,vnew:     111.18 MB

     Dynamical RAM for               rhoin:      37.06 MB

     Dynamical RAM for            rho*nmix:     292.60 MB

     Dynamical RAM for           G-vectors:      71.81 MB

     Dynamical RAM for          h,s,v(r/c):       0.01 MB

     Dynamical RAM for          <psi|beta>:       0.00 MB

     Dynamical RAM for                 psi:      12.93 MB

     Dynamical RAM for                hpsi:      12.93 MB

     Dynamical RAM for                spsi:      12.93 MB

     Dynamical RAM for      wfcinit/wfcrot:      12.93 MB

     Dynamical RAM for           addusdens:     822.94 MB

     Dynamical RAM for          addusforce:     868.66 MB

     Dynamical RAM for         addusstress:     914.37 MB

     Estimated static dynamical RAM per process >     513.02 MB

     Estimated max dynamical RAM per process >       1.68 GB

     Initial potential from superposition of free atoms

     starting charge       8.0000, renormalised to       8.0000

     negative rho (up, down):  2.883E-04 0.000E+00
     Starting wfcs are    6 randomized atomic wfcs +    2 random wfcs
     Checking if some PAW data can be deallocated... 

     total cpu time spent up to now is        3.1 secs

     Self-consistent Calculation

     iteration #  1     ecut=    60.00 Ry     beta= 0.40
     Davidson diagonalization with overlap

---- Real-time Memory Report at c_bands before calling an iterative solver
             0 MiB given to the printing process from OS
             0 MiB allocation reported by mallinfo(arena+hblkhd)
             0 MiB available memory on the node where the printing process lives
------------------
     ethr =  1.00E-02,  avg # of iterations =  7.5

     negative rho (up, down):  5.088E-04 0.000E+00

     total cpu time spent up to now is       13.1 secs

     total energy              =     -43.94397657 Ry
     estimated scf accuracy    <       0.45621362 Ry

     iteration #  2     ecut=    60.00 Ry     beta= 0.40
     Davidson diagonalization with overlap

---- Real-time Memory Report at c_bands before calling an iterative solver
             0 MiB given to the printing process from OS
             0 MiB allocation reported by mallinfo(arena+hblkhd)
             0 MiB available memory on the node where the printing process lives
------------------
     ethr =  5.70E-03,  avg # of iterations =  2.0

     negative rho (up, down):  5.324E-04 0.000E+00

     total cpu time spent up to now is       18.9 secs

     total energy              =     -44.04232829 Ry
     estimated scf accuracy    <       0.02895661 Ry

     iteration #  3     ecut=    60.00 Ry     beta= 0.40
     Davidson diagonalization with overlap

---- Real-time Memory Report at c_bands before calling an iterative solver
             0 MiB given to the printing process from OS
             0 MiB allocation reported by mallinfo(arena+hblkhd)
             0 MiB available memory on the node where the printing process lives
------------------
     ethr =  3.62E-04,  avg # of iterations =  5.4

     negative rho (up, down):  6.886E-04 0.000E+00

     total cpu time spent up to now is       26.7 secs

     total energy              =     -44.03960275 Ry
     estimated scf accuracy    <       0.01022556 Ry

     iteration #  4     ecut=    60.00 Ry     beta= 0.40
     Davidson diagonalization with overlap

---- Real-time Memory Report at c_bands before calling an iterative solver
             0 MiB given to the printing process from OS
             0 MiB allocation reported by mallinfo(arena+hblkhd)
             0 MiB available memory on the node where the printing process lives
------------------
     ethr =  1.28E-04,  avg # of iterations =  4.9

     negative rho (up, down):  6.881E-04 0.000E+00

     total cpu time spent up to now is       34.1 secs

     total energy              =     -44.04026369 Ry
     estimated scf accuracy    <       0.00173292 Ry

     iteration #  5     ecut=    60.00 Ry     beta= 0.40
     Davidson diagonalization with overlap

---- Real-time Memory Report at c_bands before calling an iterative solver
             0 MiB given to the printing process from OS
             0 MiB allocation reported by mallinfo(arena+hblkhd)
             0 MiB available memory on the node where the printing process lives
------------------
     ethr =  2.17E-05,  avg # of iterations =  7.3

     negative rho (up, down):  6.826E-04 0.000E+00

     total cpu time spent up to now is       43.1 secs

     total energy              =     -44.04042459 Ry
     estimated scf accuracy    <       0.00009967 Ry

     iteration #  6     ecut=    60.00 Ry     beta= 0.40
     Davidson diagonalization with overlap

---- Real-time Memory Report at c_bands before calling an iterative solver
             0 MiB given to the printing process from OS
             0 MiB allocation reported by mallinfo(arena+hblkhd)
             0 MiB available memory on the node where the printing process lives
------------------
     c_bands:  1 eigenvalues not converged
     c_bands:  1 eigenvalues not converged
     ethr =  1.25E-06,  avg # of iterations =  9.6

     negative rho (up, down):  6.845E-04 0.000E+00

     total cpu time spent up to now is       53.6 secs

     total energy              =     -44.04046033 Ry
     estimated scf accuracy    <       0.00000379 Ry

     iteration #  7     ecut=    60.00 Ry     beta= 0.40
     Davidson diagonalization with overlap

---- Real-time Memory Report at c_bands before calling an iterative solver
             0 MiB given to the printing process from OS
             0 MiB allocation reported by mallinfo(arena+hblkhd)
             0 MiB available memory on the node where the printing process lives
------------------
     ethr =  4.74E-08,  avg # of iterations =  3.9

     negative rho (up, down):  6.894E-04 0.000E+00

     total cpu time spent up to now is       60.5 secs

     total energy              =     -44.04045269 Ry
     estimated scf accuracy    <       0.00002229 Ry

     iteration #  8     ecut=    60.00 Ry     beta= 0.40
     Davidson diagonalization with overlap

---- Real-time Memory Report at c_bands before calling an iterative solver
             0 MiB given to the printing process from OS
             0 MiB allocation reported by mallinfo(arena+hblkhd)
             0 MiB available memory on the node where the printing process lives
------------------
     ethr =  4.74E-08,  avg # of iterations =  3.0

     negative rho (up, down):  6.909E-04 0.000E+00

     total cpu time spent up to now is       67.2 secs

     total energy              =     -44.04045671 Ry
     estimated scf accuracy    <       0.00000003 Ry

     iteration #  9     ecut=    60.00 Ry     beta= 0.40
     Davidson diagonalization with overlap

---- Real-time Memory Report at c_bands before calling an iterative solver
             0 MiB given to the printing process from OS
             0 MiB allocation reported by mallinfo(arena+hblkhd)
             0 MiB available memory on the node where the printing process lives
------------------
     ethr =  3.27E-10,  avg # of iterations =  2.6

     negative rho (up, down):  6.921E-04 0.000E+00

     total cpu time spent up to now is       73.7 secs

     total energy              =     -44.04045674 Ry
     estimated scf accuracy    <       0.00000004 Ry

     iteration # 10     ecut=    60.00 Ry     beta= 0.40
     Davidson diagonalization with overlap

---- Real-time Memory Report at c_bands before calling an iterative solver
             0 MiB given to the printing process from OS
             0 MiB allocation reported by mallinfo(arena+hblkhd)
             0 MiB available memory on the node where the printing process lives
------------------
     ethr =  3.27E-10,  avg # of iterations =  1.9

     negative rho (up, down):  6.929E-04 0.000E+00

     total cpu time spent up to now is       79.5 secs

     total energy              =     -44.04045672 Ry
     estimated scf accuracy    <       0.00000006 Ry

     iteration # 11     ecut=    60.00 Ry     beta= 0.40
     Davidson diagonalization with overlap

---- Real-time Memory Report at c_bands before calling an iterative solver
             0 MiB given to the printing process from OS
             0 MiB allocation reported by mallinfo(arena+hblkhd)
             0 MiB available memory on the node where the printing process lives
------------------
     ethr =  3.27E-10,  avg # of iterations =  3.0

     negative rho (up, down):  6.938E-04 0.000E+00

     total cpu time spent up to now is       86.1 secs

     End of self-consistent calculation

          k = 0.0000 0.0000 0.0000 ( 52923 PWs)   bands (ev):

   -25.1858 -12.9611  -9.2121  -7.1078  -0.9506   0.4281   0.7307   1.1544

     occupation numbers 
     1.0000   1.0000   1.0000   1.0000   0.0000   0.0000   0.0000   0.0000

          k = 0.0000 0.0000 0.3333 ( 52914 PWs)   bands (ev):

   -25.1858 -12.9611  -9.2121  -7.1078  -0.8963   0.2132   0.8141   0.8967

     occupation numbers 
     1.0000   1.0000   1.0000   1.0000   0.0000   0.0000   0.0000   0.0000

          k = 0.0000 0.3333 0.3333 ( 52939 PWs)   bands (ev):

   -25.1858 -12.9611  -9.2121  -7.1079  -0.8484   0.2767   0.5307   0.8984

     occupation numbers 
     1.0000   1.0000   1.0000   1.0000   0.0000   0.0000   0.0000   0.0000

          k = 0.3333 0.3333 0.3333 ( 52995 PWs)   bands (ev):

   -25.1858 -12.9611  -9.2121  -7.1079  -0.7978   0.3037   0.6727   0.6859

     occupation numbers 
     1.0000   1.0000   1.0000   1.0000   0.0000   0.0000   0.0000   0.0000

          k = 0.3333 0.0000 0.0000 ( 52914 PWs)   bands (ev):

   -25.1858 -12.9611  -9.2121  -7.1078  -0.8867   0.1573   0.7863   1.0833

     occupation numbers 
     1.0000   1.0000   1.0000   1.0000   0.0000   0.0000   0.0000   0.0000

          k = 0.0000 0.3333 0.0000 ( 52914 PWs)   bands (ev):

   -25.1858 -12.9611  -9.2121  -7.1078  -0.8952   0.2082   0.8129   0.9129

     occupation numbers 
     1.0000   1.0000   1.0000   1.0000   0.0000   0.0000   0.0000   0.0000

          k = 0.0000-0.3333 0.3333 ( 52939 PWs)   bands (ev):

   -25.1858 -12.9611  -9.2121  -7.1079  -0.8491   0.3197   0.4561   0.9775

     occupation numbers 
     1.0000   1.0000   1.0000   1.0000   0.0000   0.0000   0.0000   0.0000

          k = 0.3333 0.0000-0.3333 ( 52939 PWs)   bands (ev):

   -25.1858 -12.9611  -9.2121  -7.1078  -0.8407   0.3002   0.4076   0.9610

     occupation numbers 
     1.0000   1.0000   1.0000   1.0000   0.0000   0.0000   0.0000   0.0000

          k =-0.3333 0.0000-0.3333 ( 52939 PWs)   bands (ev):

   -25.1858 -12.9611  -9.2121  -7.1078  -0.8397   0.2281   0.5232   0.9310

     occupation numbers 
     1.0000   1.0000   1.0000   1.0000   0.0000   0.0000   0.0000   0.0000

          k = 0.3333-0.3333 0.0000 ( 52939 PWs)   bands (ev):

   -25.1858 -12.9611  -9.2121  -7.1078  -0.8397   0.3066   0.3952   0.9613

     occupation numbers 
     1.0000   1.0000   1.0000   1.0000   0.0000   0.0000   0.0000   0.0000

          k =-0.3333-0.3333 0.0000 ( 52939 PWs)   bands (ev):

   -25.1858 -12.9611  -9.2121  -7.1078  -0.8386   0.2199   0.5332   0.9299

     occupation numbers 
     1.0000   1.0000   1.0000   1.0000   0.0000   0.0000   0.0000   0.0000

          k =-0.3333-0.3333 0.3333 ( 52995 PWs)   bands (ev):

   -25.1858 -12.9611  -9.2121  -7.1079  -0.7991   0.3640   0.5460   0.7074

     occupation numbers 
     1.0000   1.0000   1.0000   1.0000   0.0000   0.0000   0.0000   0.0000

          k =-0.3333 0.3333-0.3333 ( 52995 PWs)   bands (ev):

   -25.1858 -12.9611  -9.2121  -7.1079  -0.7993   0.3769   0.5293   0.7050

     occupation numbers 
     1.0000   1.0000   1.0000   1.0000   0.0000   0.0000   0.0000   0.0000

          k = 0.3333-0.3333-0.3333 ( 52995 PWs)   bands (ev):

   -25.1858 -12.9611  -9.2121  -7.1079  -0.7996   0.4467   0.4595   0.6826

     occupation numbers 
     1.0000   1.0000   1.0000   1.0000   0.0000   0.0000   0.0000   0.0000

     the Fermi energy is    -4.0701 ev

!    total energy              =     -44.04045673 Ry
     estimated scf accuracy    <          5.8E-10 Ry
     smearing contrib. (-TS)   =       0.00000000 Ry
     internal energy E=F+TS    =     -44.04045673 Ry

     The total energy is F=E-TS. E is the sum of the following terms:
     one-electron contribution =     -63.00081127 Ry
     hartree contribution      =      33.08446407 Ry
     xc contribution           =      -8.83573432 Ry
     ewald contribution        =       4.22073421 Ry
     one-center paw contrib.   =      -9.50910942 Ry
      -> PAW hartree energy AE =      28.41462284 Ry
      -> PAW hartree energy PS =     -28.28218035 Ry
      -> PAW xc energy AE      =     -17.02645311 Ry
      -> PAW xc energy PS      =       7.38490119 Ry
      -> total E_H with PAW    =      33.21690656 Ry
      -> total E_XC with PAW   =     -18.47728623 Ry

     convergence has been achieved in  11 iterations

     negative rho (up, down):  6.938E-04 0.000E+00

     Forces acting on atoms (cartesian axes, Ry/au):

     atom    1 type  2   force =    -0.00093286    0.00101354    0.00083702
     atom    2 type  1   force =    -0.00155918   -0.00164425   -0.00135920
     atom    3 type  1   force =     0.00249204    0.00063072    0.00052218
     The non-local contrib.  to forces
     atom    1 type  2   force =     1.41561587   -1.54557377   -1.27282092
     atom    2 type  1   force =     0.03514685    0.07984969    0.06575455
     atom    3 type  1   force =    -0.10923240    0.00103231    0.00084948
     The ionic contribution  to forces
     atom    1 type  2   force =    -2.53454545    2.76764411    2.27920149
     atom    2 type  1   force =    -1.21928081   -2.74133105   -2.25756089
     atom    3 type  1   force =     3.75382626   -0.02631306   -0.02164060
     The local contribution  to forces
     atom    1 type  2   force =     1.13203162   -1.23638020   -1.01816409
     atom    2 type  1   force =     1.18257815    2.65983693    2.19044697
     atom    3 type  1   force =    -3.64210287    0.02590891    0.02131119
     The core correction contribution to forces
     atom    1 type  2   force =    -0.01405810    0.01534825    0.01264043
     atom    2 type  1   force =     0.00000000    0.00000000    0.00000000
     atom    3 type  1   force =     0.00000000    0.00000000    0.00000000
     The Hubbard contrib.    to forces
     atom    1 type  2   force =     0.00000000    0.00000000    0.00000000
     atom    2 type  1   force =     0.00000000    0.00000000    0.00000000
     atom    3 type  1   force =     0.00000000    0.00000000    0.00000000
     The SCF correction term to forces
     atom    1 type  2   force =     0.00002755   -0.00002960   -0.00002378
     atom    2 type  1   force =     0.00000099   -0.00000457   -0.00000374
     atom    3 type  1   force =     0.00000541   -0.00000218   -0.00000178

     Total force =     0.004057     Total SCF correction =     0.000048


     Computing stress (Cartesian axis) and pressure


     negative rho (up, down):  6.938E-04 0.000E+00
          total   stress  (Ry/bohr**3)                   (kbar)     P=       -0.02
   0.00000024   0.00000027   0.00000023            0.04        0.04        0.03
   0.00000027  -0.00000024   0.00000028            0.04       -0.04        0.04
   0.00000023   0.00000028  -0.00000031            0.03        0.04       -0.05

     kinetic stress (kbar)    255.27     -9.57     -7.88
                               -9.57    281.95    -21.74
                               -7.88    -21.74    290.45

     local   stress (kbar)   -589.64    -26.07    -21.47
                              -26.07   -518.59    -55.46
                              -21.47    -55.46   -496.47

     nonloc. stress (kbar)     47.32      0.03      0.03
                                0.03     48.42     -1.37
                                0.03     -1.37     48.95

     hartree stress (kbar)    251.89      5.17      4.26
                                5.17    237.02     11.78
                                4.26     11.78    232.29

     exc-cor stress (kbar)    -50.76      0.11      0.09
                                0.11    -51.10      0.28
                                0.09      0.28    -51.21

     corecor stress (kbar)     -9.23      0.02      0.01
                                0.02     -9.29      0.05
                                0.01      0.05     -9.31

     ewald   stress (kbar)     95.20     30.35     24.99
                               30.35     11.55     66.51
                               24.99     66.51    -14.75

     hubbard stress (kbar)      0.00      0.00      0.00
                                0.00      0.00      0.00
                                0.00      0.00      0.00

     DFT-D   stress (kbar)      0.00      0.00      0.00
                                0.00      0.00      0.00
                                0.00      0.00      0.00

     XDM     stress (kbar)      0.00      0.00      0.00
                                0.00      0.00      0.00
                                0.00      0.00      0.00

     dft-nl  stress (kbar)      0.00      0.00      0.00
                                0.00      0.00      0.00
                                0.00      0.00      0.00

     TS-vdW  stress (kbar)      0.00      0.00      0.00
                                0.00      0.00      0.00
                                0.00      0.00      0.00

     MDB     stress (kbar)      0.00      0.00      0.00
                                0.00      0.00      0.00
                                0.00      0.00      0.00

     3D-RISM stress (kbar)      0.00      0.00      0.00
                                0.00      0.00      0.00
                                0.00      0.00      0.00


     Writing all to output data dir ./out/h2o.save/ :
     XML data file, charge density, pseudopotentials, collected wavefunctions

     init_run     :      2.90s CPU      3.03s WALL (       1 calls)
     electrons    :     83.64s CPU     83.05s WALL (       1 calls)
     forces       :      1.27s CPU      1.28s WALL (       1 calls)
     stress       :      4.78s CPU      4.42s WALL (       1 calls)

     Called by init_run:
     wfcinit      :      1.60s CPU      1.62s WALL (       1 calls)
     wfcinit:atom :      0.03s CPU      0.03s WALL (      14 calls)
     wfcinit:wfcr :      1.48s CPU      1.49s WALL (      14 calls)
     potinit      :      0.51s CPU      0.55s WALL (       1 calls)
     hinit0       :      0.23s CPU      0.24s WALL (       1 calls)

     Called by electrons:
     c_bands      :     61.94s CPU     61.50s WALL (      11 calls)
     sum_band     :     12.43s CPU     12.16s WALL (      11 calls)
     v_of_rho     :      4.86s CPU      4.96s WALL (      12 calls)
     v_h          :      0.37s CPU      0.37s WALL (      12 calls)
     v_xc         :      5.24s CPU      5.34s WALL (      14 calls)
     newd         :      3.27s CPU      3.34s WALL (      12 calls)
     PAW_pot      :      0.21s CPU      0.21s WALL (      12 calls)
     mix_rho      :      1.05s CPU      1.09s WALL (      11 calls)

     Called by c_bands:
     init_us_2    :      1.16s CPU      1.17s WALL (     350 calls)
     cegterg      :     60.86s CPU     60.42s WALL (     154 calls)

     Called by sum_band:
     sum_band:wei :      0.00s CPU      0.00s WALL (      11 calls)
     sum_band:loo :      8.08s CPU      8.11s WALL (      11 calls)
     sum_band:buf :      0.03s CPU      0.03s WALL (     154 calls)
     sum_band:ini :      0.51s CPU      0.51s WALL (     154 calls)
     sum_band:cal :      0.52s CPU      0.52s WALL (     154 calls)
     sum_band:bec :      0.00s CPU      0.00s WALL (     154 calls)
     addusdens    :      3.89s CPU      3.60s WALL (      11 calls)
                                        0.00s GPU  (      11 calls)
     addusd:skk   :      0.05s CPU      0.05s WALL (      22 calls)
                                        0.00s GPU  (      22 calls)

     Called by *egterg:
     cdiaghg      :      0.05s CPU      0.05s WALL (     870 calls)
     cegterg:over :      4.07s CPU      3.99s WALL (     716 calls)
     cegterg:upda :      2.66s CPU      2.30s WALL (     716 calls)
     cegterg:last :      2.85s CPU      2.86s WALL (     411 calls)
     h_psi        :     49.82s CPU     49.82s WALL (     884 calls)
     s_psi        :      1.62s CPU      1.60s WALL (     884 calls)
     g_psi        :      0.16s CPU      0.16s WALL (     716 calls)

     Called by h_psi:
     h_psi:calbec :      2.11s CPU      2.11s WALL (     884 calls)
     vloc_psi     :     45.66s CPU     45.86s WALL (     884 calls)
                                        0.00s GPU  (     884 calls)
     add_vuspsi   :      1.94s CPU      1.74s WALL (     884 calls)

     General routines
     calbec       :      3.43s CPU      3.43s WALL (    1276 calls)
     fft          :      4.74s CPU      4.75s WALL (     179 calls)
     ffts         :      0.28s CPU      0.28s WALL (      23 calls)
     fftw         :     48.10s CPU     48.27s WALL (    9258 calls)
     interpolate  :      0.48s CPU      0.48s WALL (      12 calls)

     Parallel routines

     PAW routines
     PAW_pot      :      0.21s CPU      0.21s WALL (      12 calls)

     PWSCF        :   1m32.66s CPU   1m31.90s WALL


   This run was terminated on:  17:36:35  27Apr2026            

=------------------------------------------------------------------------------=
   JOB DONE.
=------------------------------------------------------------------------------=
