
     Program PWSCF v.7.5 starts on 27Apr2026 at  6:14:13 

     This program is part of the open-source Quantum ESPRESSO suite
     for quantum simulation of materials; please cite
         "P. Giannozzi et al., J. Phys.:Condens. Matter 21 395502 (2009);
         "P. Giannozzi et al., J. Phys.:Condens. Matter 29 465901 (2017);
         "P. Giannozzi et al., J. Chem. Phys. 152 154105 (2020);
          URL http://www.quantum-espresso.org", 
     in publications or presentations arising from this work. More details at
     http://www.quantum-espresso.org/quote

     Parallel version (MPI), running on     6 processors

     MPI processes distributed on     1 nodes
     0 MiB available memory on the printing compute node when the environment starts

     Waiting for input...
     Reading input from standard input

     Current dimensions of program PWSCF are:
     Max number of different atomic species (ntypx) = 10
     Max number of k-points (npk) =  40000
     Max angular momentum in pseudopotentials (lmaxx) =  4
     Message from routine volume:
     axis vectors are left-handed
     Message from routine setup:
     using ibrav=0 with symmetry is DISCOURAGED, use correct ibrav instead

     R & G space division:  proc/nbgrp/npool/nimage =       6
     Subspace diagonalization in iterative solution of the eigenvalue problem:
     a serial algorithm will be used


     Parallelization info
     --------------------
     sticks:   dense  smooth     PW     G-vecs:    dense   smooth      PW
     Min         143      72     24                 2814      997     189
     Max         144      73     26                 2817      999     190
     Sum         859     433    151                16889     5985    1139

     Using Slab Decomposition



     bravais-lattice index     =            0
     lattice parameter (alat)  =       7.2571  a.u.
     unit-cell volume          =     270.2504 (a.u.)^3
     number of atoms/cell      =            2
     number of atomic types    =            1
     number of electrons       =         8.00
     number of Kohn-Sham states=            8
     kinetic-energy cutoff     =      30.0000  Ry
     charge density cutoff     =     240.0000  Ry
     scf convergence threshold =      4.0E-10
     mixing beta               =       0.4000
     number of iterations used =            8  plain     mixing
     Exchange-correlation= PBE
                           (   1   4   3   4   0   0   0)

     celldm(1)=   7.257056  celldm(2)=   0.000000  celldm(3)=   0.000000
     celldm(4)=   0.000000  celldm(5)=   0.000000  celldm(6)=   0.000000

     crystal axes: (cart. coord. in units of alat)
               a(1) = (   0.707107   0.707107   0.000000 )  
               a(2) = (   0.707107   0.000000   0.707107 )  
               a(3) = (   0.000000   0.707107   0.707107 )  

     reciprocal axes: (cart. coord. in units 2 pi/alat)
               b(1) = (  0.707107  0.707107 -0.707107 )  
               b(2) = (  0.707107 -0.707107  0.707107 )  
               b(3) = ( -0.707107  0.707107  0.707107 )  


     PseudoPot. # 1 for Si read from file:
     ./Si.pbe-n-rrkjus_psl.1.0.0.UPF
     MD5 check sum: 0b0bb1205258b0d07b9f9672cf965d36
     Pseudo is Ultrasoft + core correction, Zval =  4.0
     Generated using "atomic" code by A. Dal Corso  v.5.1
     Using radial grid of 1141 points,  6 beta functions with: 
                l(1) =   0
                l(2) =   0
                l(3) =   1
                l(4) =   1
                l(5) =   2
                l(6) =   2
     Q(r) pseudized with 0 coefficients 


     atomic species   valence    mass     pseudopotential
     Si                4.00    28.08550     Si( 1.00)

     48 Sym. Ops., with inversion, found (24 have fractional translation)


                                    s                        frac. trans.

      isym =  1     identity                                     

 cryst.   s( 1) = (     1          0          0      )
                  (     0          1          0      )
                  (     0          0          1      )

 cart.    s( 1) = (  1.0000000  0.0000000 -0.0000000 )
                  (  0.0000000  1.0000000 -0.0000000 )
                  (  0.0000000 -0.0000000  1.0000000 )


      isym =  2     180 deg rotation - cart. axis [0,0,1]        

 cryst.   s( 2) = (    -1          0          0      )
                  (    -1          0          1      )
                  (    -1          1          0      )

 cart.    s( 2) = ( -1.0000000 -0.0000000 -0.0000000 )
                  ( -0.0000000 -1.0000000 -0.0000000 )
                  ( -0.0000000  0.0000000  1.0000000 )


      isym =  3     180 deg rotation - cart. axis [0,1,0]        

 cryst.   s( 3) = (     0         -1          1      )
                  (     0         -1          0      )
                  (     1         -1          0      )

 cart.    s( 3) = ( -1.0000000  0.0000000  0.0000000 )
                  ( -0.0000000  1.0000000  0.0000000 )
                  ( -0.0000000 -0.0000000 -1.0000000 )


      isym =  4     180 deg rotation - cart. axis [1,0,0]        

 cryst.   s( 4) = (     0          1         -1      )
                  (     1          0         -1      )
                  (     0          0         -1      )

 cart.    s( 4) = (  1.0000000 -0.0000000  0.0000000 )
                  (  0.0000000 -1.0000000  0.0000000 )
                  (  0.0000000  0.0000000 -1.0000000 )


      isym =  5     180 deg rotation - cart. axis [1,1,0]        

 cryst.   s( 5) = (     1          0          0      )    f =( -0.2500000 )
                  (     1         -1          0      )       ( -0.2500000 )
                  (     1          0         -1      )       ( -0.2500000 )

 cart.    s( 5) = (  0.0000000  1.0000000  0.0000000 )    f =( -0.3535534 )
                  (  1.0000000  0.0000000  0.0000000 )       ( -0.3535534 )
                  ( -0.0000000  0.0000000 -1.0000000 )       ( -0.3535534 )


      isym =  6     180 deg rotation - cart. axis [1,-1,0]       

 cryst.   s( 6) = (    -1          0          0      )    f =( -0.2500000 )
                  (     0          0         -1      )       ( -0.2500000 )
                  (     0         -1          0      )       ( -0.2500000 )

 cart.    s( 6) = ( -0.0000000 -1.0000000  0.0000000 )    f =( -0.3535534 )
                  ( -1.0000000 -0.0000000  0.0000000 )       ( -0.3535534 )
                  (  0.0000000 -0.0000000 -1.0000000 )       ( -0.3535534 )


      isym =  7      90 deg rotation - cart. axis [0,0,-1]       

 cryst.   s( 7) = (     0          1         -1      )    f =( -0.2500000 )
                  (    -1          1          0      )       ( -0.2500000 )
                  (     0          1          0      )       ( -0.2500000 )

 cart.    s( 7) = ( -0.0000000  1.0000000 -0.0000000 )    f =( -0.3535534 )
                  ( -1.0000000  0.0000000 -0.0000000 )       ( -0.3535534 )
                  (  0.0000000  0.0000000  1.0000000 )       ( -0.3535534 )


      isym =  8      90 deg rotation - cart. axis [0,0,1]        

 cryst.   s( 8) = (     0         -1          1      )    f =( -0.2500000 )
                  (     0          0          1      )       ( -0.2500000 )
                  (    -1          0          1      )       ( -0.2500000 )

 cart.    s( 8) = (  0.0000000 -1.0000000 -0.0000000 )    f =( -0.3535534 )
                  (  1.0000000 -0.0000000 -0.0000000 )       ( -0.3535534 )
                  ( -0.0000000 -0.0000000  1.0000000 )       ( -0.3535534 )


      isym =  9     180 deg rotation - cart. axis [1,0,1]        

 cryst.   s( 9) = (    -1          1          0      )    f =( -0.2500000 )
                  (     0          1          0      )       ( -0.2500000 )
                  (     0          1         -1      )       ( -0.2500000 )

 cart.    s( 9) = ( -0.0000000 -0.0000000  1.0000000 )    f =( -0.3535534 )
                  ( -0.0000000 -1.0000000  0.0000000 )       ( -0.3535534 )
                  (  1.0000000  0.0000000  0.0000000 )       ( -0.3535534 )


      isym = 10     180 deg rotation - cart. axis [-1,0,1]       

 cryst.   s(10) = (     0          0         -1      )    f =( -0.2500000 )
                  (     0         -1          0      )       ( -0.2500000 )
                  (    -1          0          0      )       ( -0.2500000 )

 cart.    s(10) = (  0.0000000 -0.0000000 -1.0000000 )    f =( -0.3535534 )
                  (  0.0000000 -1.0000000 -0.0000000 )       ( -0.3535534 )
                  ( -1.0000000  0.0000000 -0.0000000 )       ( -0.3535534 )


      isym = 11      90 deg rotation - cart. axis [0,1,0]        

 cryst.   s(11) = (     1         -1          0      )    f =( -0.2500000 )
                  (     1          0         -1      )       ( -0.2500000 )
                  (     1          0          0      )       ( -0.2500000 )

 cart.    s(11) = (  0.0000000  0.0000000  1.0000000 )    f =( -0.3535534 )
                  (  0.0000000  1.0000000  0.0000000 )       ( -0.3535534 )
                  ( -1.0000000 -0.0000000  0.0000000 )       ( -0.3535534 )


      isym = 12      90 deg rotation - cart. axis [0,-1,0]       

 cryst.   s(12) = (     0          0          1      )    f =( -0.2500000 )
                  (    -1          0          1      )       ( -0.2500000 )
                  (     0         -1          1      )       ( -0.2500000 )

 cart.    s(12) = ( -0.0000000  0.0000000 -1.0000000 )    f =( -0.3535534 )
                  ( -0.0000000  1.0000000 -0.0000000 )       ( -0.3535534 )
                  (  1.0000000 -0.0000000 -0.0000000 )       ( -0.3535534 )


      isym = 13     180 deg rotation - cart. axis [0,1,1]        

 cryst.   s(13) = (    -1          0          1      )    f =( -0.2500000 )
                  (     0         -1          1      )       ( -0.2500000 )
                  (     0          0          1      )       ( -0.2500000 )

 cart.    s(13) = ( -1.0000000 -0.0000000  0.0000000 )    f =( -0.3535534 )
                  ( -0.0000000 -0.0000000  1.0000000 )       ( -0.3535534 )
                  ( -0.0000000  1.0000000 -0.0000000 )       ( -0.3535534 )


      isym = 14     180 deg rotation - cart. axis [0,1,-1]       

 cryst.   s(14) = (     0         -1          0      )    f =( -0.2500000 )
                  (    -1          0          0      )       ( -0.2500000 )
                  (     0          0         -1      )       ( -0.2500000 )

 cart.    s(14) = ( -1.0000000  0.0000000 -0.0000000 )    f =( -0.3535534 )
                  ( -0.0000000  0.0000000 -1.0000000 )       ( -0.3535534 )
                  ( -0.0000000 -1.0000000  0.0000000 )       ( -0.3535534 )


      isym = 15      90 deg rotation - cart. axis [-1,0,0]       

 cryst.   s(15) = (     1          0         -1      )    f =( -0.2500000 )
                  (     1          0          0      )       ( -0.2500000 )
                  (     1         -1          0      )       ( -0.2500000 )

 cart.    s(15) = (  1.0000000  0.0000000  0.0000000 )    f =( -0.3535534 )
                  (  0.0000000  0.0000000  1.0000000 )       ( -0.3535534 )
                  (  0.0000000 -1.0000000 -0.0000000 )       ( -0.3535534 )


      isym = 16      90 deg rotation - cart. axis [1,0,0]        

 cryst.   s(16) = (     0          1          0      )    f =( -0.2500000 )
                  (     0          1         -1      )       ( -0.2500000 )
                  (    -1          1          0      )       ( -0.2500000 )

 cart.    s(16) = (  1.0000000 -0.0000000 -0.0000000 )    f =( -0.3535534 )
                  (  0.0000000 -0.0000000 -1.0000000 )       ( -0.3535534 )
                  (  0.0000000  1.0000000  0.0000000 )       ( -0.3535534 )


      isym = 17     120 deg rotation - cart. axis [-1,-1,-1]     

 cryst.   s(17) = (     0          1          0      )
                  (     0          0          1      )
                  (     1          0          0      )

 cart.    s(17) = ( -0.0000000  1.0000000  0.0000000 )
                  ( -0.0000000  0.0000000  1.0000000 )
                  (  1.0000000  0.0000000 -0.0000000 )


      isym = 18     120 deg rotation - cart. axis [-1,1,1]       

 cryst.   s(18) = (     0         -1          0      )
                  (     1         -1          0      )
                  (     0         -1          1      )

 cart.    s(18) = (  0.0000000 -1.0000000  0.0000000 )
                  (  0.0000000 -0.0000000  1.0000000 )
                  ( -1.0000000 -0.0000000 -0.0000000 )


      isym = 19     120 deg rotation - cart. axis [1,1,-1]       

 cryst.   s(19) = (     1          0         -1      )
                  (     0          0         -1      )
                  (     0          1         -1      )

 cart.    s(19) = (  0.0000000  1.0000000 -0.0000000 )
                  (  0.0000000  0.0000000 -1.0000000 )
                  ( -1.0000000  0.0000000  0.0000000 )


      isym = 20     120 deg rotation - cart. axis [1,-1,1]       

 cryst.   s(20) = (    -1          0          1      )
                  (    -1          1          0      )
                  (    -1          0          0      )

 cart.    s(20) = ( -0.0000000 -1.0000000 -0.0000000 )
                  ( -0.0000000 -0.0000000 -1.0000000 )
                  (  1.0000000 -0.0000000  0.0000000 )


      isym = 21     120 deg rotation - cart. axis [1,1,1]        

 cryst.   s(21) = (     0          0          1      )
                  (     1          0          0      )
                  (     0          1          0      )

 cart.    s(21) = (  0.0000000 -0.0000000  1.0000000 )
                  (  1.0000000 -0.0000000  0.0000000 )
                  ( -0.0000000  1.0000000  0.0000000 )


      isym = 22     120 deg rotation - cart. axis [-1,1,-1]      

 cryst.   s(22) = (     0          0         -1      )
                  (     0          1         -1      )
                  (     1          0         -1      )

 cart.    s(22) = ( -0.0000000  0.0000000  1.0000000 )
                  ( -1.0000000  0.0000000  0.0000000 )
                  (  0.0000000 -1.0000000  0.0000000 )


      isym = 23     120 deg rotation - cart. axis [1,-1,-1]      

 cryst.   s(23) = (    -1          1          0      )
                  (    -1          0          0      )
                  (    -1          0          1      )

 cart.    s(23) = ( -0.0000000 -0.0000000 -1.0000000 )
                  ( -1.0000000 -0.0000000 -0.0000000 )
                  (  0.0000000  1.0000000 -0.0000000 )


      isym = 24     120 deg rotation - cart. axis [-1,-1,1]      

 cryst.   s(24) = (     1         -1          0      )
                  (     0         -1          1      )
                  (     0         -1          0      )

 cart.    s(24) = (  0.0000000  0.0000000 -1.0000000 )
                  (  1.0000000  0.0000000 -0.0000000 )
                  ( -0.0000000 -1.0000000 -0.0000000 )


      isym = 25     inversion                                    

 cryst.   s(25) = (    -1          0          0      )    f =( -0.2500000 )
                  (     0         -1          0      )       ( -0.2500000 )
                  (     0          0         -1      )       ( -0.2500000 )

 cart.    s(25) = ( -1.0000000 -0.0000000  0.0000000 )    f =( -0.3535534 )
                  ( -0.0000000 -1.0000000  0.0000000 )       ( -0.3535534 )
                  ( -0.0000000  0.0000000 -1.0000000 )       ( -0.3535534 )


      isym = 26     inv. 180 deg rotation - cart. axis [0,0,1]   

 cryst.   s(26) = (     1          0          0      )    f =( -0.2500000 )
                  (     1          0         -1      )       ( -0.2500000 )
                  (     1         -1          0      )       ( -0.2500000 )

 cart.    s(26) = (  1.0000000  0.0000000  0.0000000 )    f =( -0.3535534 )
                  (  0.0000000  1.0000000  0.0000000 )       ( -0.3535534 )
                  (  0.0000000 -0.0000000 -1.0000000 )       ( -0.3535534 )


      isym = 27     inv. 180 deg rotation - cart. axis [0,1,0]   

 cryst.   s(27) = (     0          1         -1      )    f =( -0.2500000 )
                  (     0          1          0      )       ( -0.2500000 )
                  (    -1          1          0      )       ( -0.2500000 )

 cart.    s(27) = (  1.0000000 -0.0000000 -0.0000000 )    f =( -0.3535534 )
                  (  0.0000000 -1.0000000 -0.0000000 )       ( -0.3535534 )
                  (  0.0000000  0.0000000  1.0000000 )       ( -0.3535534 )


      isym = 28     inv. 180 deg rotation - cart. axis [1,0,0]   

 cryst.   s(28) = (     0         -1          1      )    f =( -0.2500000 )
                  (    -1          0          1      )       ( -0.2500000 )
                  (     0          0          1      )       ( -0.2500000 )

 cart.    s(28) = ( -1.0000000  0.0000000 -0.0000000 )    f =( -0.3535534 )
                  ( -0.0000000  1.0000000 -0.0000000 )       ( -0.3535534 )
                  ( -0.0000000 -0.0000000  1.0000000 )       ( -0.3535534 )


      isym = 29     inv. 180 deg rotation - cart. axis [1,1,0]   

 cryst.   s(29) = (    -1          0          0      )
                  (    -1          1          0      )
                  (    -1          0          1      )

 cart.    s(29) = ( -0.0000000 -1.0000000 -0.0000000 )
                  ( -1.0000000 -0.0000000 -0.0000000 )
                  (  0.0000000 -0.0000000  1.0000000 )


      isym = 30     inv. 180 deg rotation - cart. axis [1,-1,0]  

 cryst.   s(30) = (     1          0          0      )
                  (     0          0          1      )
                  (     0          1          0      )

 cart.    s(30) = (  0.0000000  1.0000000 -0.0000000 )
                  (  1.0000000  0.0000000 -0.0000000 )
                  ( -0.0000000  0.0000000  1.0000000 )


      isym = 31     inv.  90 deg rotation - cart. axis [0,0,-1]  

 cryst.   s(31) = (     0         -1          1      )
                  (     1         -1          0      )
                  (     0         -1          0      )

 cart.    s(31) = (  0.0000000 -1.0000000  0.0000000 )
                  (  1.0000000 -0.0000000  0.0000000 )
                  ( -0.0000000 -0.0000000 -1.0000000 )


      isym = 32     inv.  90 deg rotation - cart. axis [0,0,1]   

 cryst.   s(32) = (     0          1         -1      )
                  (     0          0         -1      )
                  (     1          0         -1      )

 cart.    s(32) = ( -0.0000000  1.0000000  0.0000000 )
                  ( -1.0000000  0.0000000  0.0000000 )
                  (  0.0000000  0.0000000 -1.0000000 )


      isym = 33     inv. 180 deg rotation - cart. axis [1,0,1]   

 cryst.   s(33) = (     1         -1          0      )
                  (     0         -1          0      )
                  (     0         -1          1      )

 cart.    s(33) = (  0.0000000  0.0000000 -1.0000000 )
                  (  0.0000000  1.0000000 -0.0000000 )
                  ( -1.0000000 -0.0000000 -0.0000000 )


      isym = 34     inv. 180 deg rotation - cart. axis [-1,0,1]  

 cryst.   s(34) = (     0          0          1      )
                  (     0          1          0      )
                  (     1          0          0      )

 cart.    s(34) = ( -0.0000000  0.0000000  1.0000000 )
                  ( -0.0000000  1.0000000  0.0000000 )
                  (  1.0000000 -0.0000000  0.0000000 )


      isym = 35     inv.  90 deg rotation - cart. axis [0,1,0]   

 cryst.   s(35) = (    -1          1          0      )
                  (    -1          0          1      )
                  (    -1          0          0      )

 cart.    s(35) = ( -0.0000000 -0.0000000 -1.0000000 )
                  ( -0.0000000 -1.0000000 -0.0000000 )
                  (  1.0000000  0.0000000 -0.0000000 )


      isym = 36     inv.  90 deg rotation - cart. axis [0,-1,0]  

 cryst.   s(36) = (     0          0         -1      )
                  (     1          0         -1      )
                  (     0          1         -1      )

 cart.    s(36) = (  0.0000000 -0.0000000  1.0000000 )
                  (  0.0000000 -1.0000000  0.0000000 )
                  ( -1.0000000  0.0000000  0.0000000 )


      isym = 37     inv. 180 deg rotation - cart. axis [0,1,1]   

 cryst.   s(37) = (     1          0         -1      )
                  (     0          1         -1      )
                  (     0          0         -1      )

 cart.    s(37) = (  1.0000000  0.0000000 -0.0000000 )
                  (  0.0000000  0.0000000 -1.0000000 )
                  (  0.0000000 -1.0000000  0.0000000 )


      isym = 38     inv. 180 deg rotation - cart. axis [0,1,-1]  

 cryst.   s(38) = (     0          1          0      )
                  (     1          0          0      )
                  (     0          0          1      )

 cart.    s(38) = (  1.0000000 -0.0000000  0.0000000 )
                  (  0.0000000 -0.0000000  1.0000000 )
                  (  0.0000000  1.0000000 -0.0000000 )


      isym = 39     inv.  90 deg rotation - cart. axis [-1,0,0]  

 cryst.   s(39) = (    -1          0          1      )
                  (    -1          0          0      )
                  (    -1          1          0      )

 cart.    s(39) = ( -1.0000000 -0.0000000 -0.0000000 )
                  ( -0.0000000 -0.0000000 -1.0000000 )
                  ( -0.0000000  1.0000000  0.0000000 )


      isym = 40     inv.  90 deg rotation - cart. axis [1,0,0]   

 cryst.   s(40) = (     0         -1          0      )
                  (     0         -1          1      )
                  (     1         -1          0      )

 cart.    s(40) = ( -1.0000000  0.0000000  0.0000000 )
                  ( -0.0000000  0.0000000  1.0000000 )
                  ( -0.0000000 -1.0000000 -0.0000000 )


      isym = 41     inv. 120 deg rotation - cart. axis [-1,-1,-1]

 cryst.   s(41) = (     0         -1          0      )    f =( -0.2500000 )
                  (     0          0         -1      )       ( -0.2500000 )
                  (    -1          0          0      )       ( -0.2500000 )

 cart.    s(41) = (  0.0000000 -1.0000000 -0.0000000 )    f =( -0.3535534 )
                  (  0.0000000 -0.0000000 -1.0000000 )       ( -0.3535534 )
                  ( -1.0000000 -0.0000000  0.0000000 )       ( -0.3535534 )


      isym = 42     inv. 120 deg rotation - cart. axis [-1,1,1]  

 cryst.   s(42) = (     0          1          0      )    f =( -0.2500000 )
                  (    -1          1          0      )       ( -0.2500000 )
                  (     0          1         -1      )       ( -0.2500000 )

 cart.    s(42) = ( -0.0000000  1.0000000 -0.0000000 )    f =( -0.3535534 )
                  ( -0.0000000  0.0000000 -1.0000000 )       ( -0.3535534 )
                  (  1.0000000  0.0000000  0.0000000 )       ( -0.3535534 )


      isym = 43     inv. 120 deg rotation - cart. axis [1,1,-1]  

 cryst.   s(43) = (    -1          0          1      )    f =( -0.2500000 )
                  (     0          0          1      )       ( -0.2500000 )
                  (     0         -1          1      )       ( -0.2500000 )

 cart.    s(43) = ( -0.0000000 -1.0000000  0.0000000 )    f =( -0.3535534 )
                  ( -0.0000000 -0.0000000  1.0000000 )       ( -0.3535534 )
                  (  1.0000000 -0.0000000 -0.0000000 )       ( -0.3535534 )


      isym = 44     inv. 120 deg rotation - cart. axis [1,-1,1]  

 cryst.   s(44) = (     1          0         -1      )    f =( -0.2500000 )
                  (     1         -1          0      )       ( -0.2500000 )
                  (     1          0          0      )       ( -0.2500000 )

 cart.    s(44) = (  0.0000000  1.0000000  0.0000000 )    f =( -0.3535534 )
                  (  0.0000000  0.0000000  1.0000000 )       ( -0.3535534 )
                  ( -1.0000000  0.0000000 -0.0000000 )       ( -0.3535534 )


      isym = 45     inv. 120 deg rotation - cart. axis [1,1,1]   

 cryst.   s(45) = (     0          0         -1      )    f =( -0.2500000 )
                  (    -1          0          0      )       ( -0.2500000 )
                  (     0         -1          0      )       ( -0.2500000 )

 cart.    s(45) = ( -0.0000000  0.0000000 -1.0000000 )    f =( -0.3535534 )
                  ( -1.0000000  0.0000000 -0.0000000 )       ( -0.3535534 )
                  (  0.0000000 -1.0000000 -0.0000000 )       ( -0.3535534 )


      isym = 46     inv. 120 deg rotation - cart. axis [-1,1,-1] 

 cryst.   s(46) = (     0          0          1      )    f =( -0.2500000 )
                  (     0         -1          1      )       ( -0.2500000 )
                  (    -1          0          1      )       ( -0.2500000 )

 cart.    s(46) = (  0.0000000 -0.0000000 -1.0000000 )    f =( -0.3535534 )
                  (  1.0000000 -0.0000000 -0.0000000 )       ( -0.3535534 )
                  ( -0.0000000  1.0000000 -0.0000000 )       ( -0.3535534 )


      isym = 47     inv. 120 deg rotation - cart. axis [1,-1,-1] 

 cryst.   s(47) = (     1         -1          0      )    f =( -0.2500000 )
                  (     1          0          0      )       ( -0.2500000 )
                  (     1          0         -1      )       ( -0.2500000 )

 cart.    s(47) = (  0.0000000  0.0000000  1.0000000 )    f =( -0.3535534 )
                  (  1.0000000  0.0000000  0.0000000 )       ( -0.3535534 )
                  ( -0.0000000 -1.0000000  0.0000000 )       ( -0.3535534 )


      isym = 48     inv. 120 deg rotation - cart. axis [-1,-1,1] 

 cryst.   s(48) = (    -1          1          0      )    f =( -0.2500000 )
                  (     0          1         -1      )       ( -0.2500000 )
                  (     0          1          0      )       ( -0.2500000 )

 cart.    s(48) = ( -0.0000000 -0.0000000  1.0000000 )    f =( -0.3535534 )
                  ( -1.0000000 -0.0000000  0.0000000 )       ( -0.3535534 )
                  (  0.0000000  1.0000000  0.0000000 )       ( -0.3535534 )


   Cartesian axes

     site n.     atom                  positions (alat units)
         1        Si     tau(   1) = (   0.0000000   0.0000000   0.0000000  )
         2        Si     tau(   2) = (   0.3535534   0.3535534   0.3535534  )

   Crystallographic axes

     site n.     atom                  positions (cryst. coord.)
         1        Si     tau(   1) = (  0.0000000  0.0000000  0.0000000  )
         2        Si     tau(   2) = (  0.2500000  0.2500000  0.2500000  )

     number of k points=   104  Marzari-Vanderbilt smearing, width (Ry)=  0.0200
                       cart. coord. in units 2pi/alat
        k(    1) = (   0.0000000   0.0000000   0.0000000), wk =   0.0007289
        k(    2) = (  -0.0505076   0.0505076   0.0505076), wk =   0.0058309
        k(    3) = (  -0.1010153   0.1010153   0.1010153), wk =   0.0058309
        k(    4) = (  -0.1515229   0.1515229   0.1515229), wk =   0.0058309
        k(    5) = (  -0.2020305   0.2020305   0.2020305), wk =   0.0058309
        k(    6) = (  -0.2525381   0.2525381   0.2525381), wk =   0.0058309
        k(    7) = (  -0.3030458   0.3030458   0.3030458), wk =   0.0058309
        k(    8) = (   0.3535534  -0.3535534  -0.3535534), wk =   0.0029155
        k(    9) = (   0.0000000  -0.0000000   0.1010153), wk =   0.0043732
        k(   10) = (  -0.0505076   0.0505076   0.1515229), wk =   0.0174927
        k(   11) = (  -0.1010153   0.1010153   0.2020305), wk =   0.0174927
        k(   12) = (  -0.1515229   0.1515229   0.2525381), wk =   0.0174927
        k(   13) = (  -0.2020305   0.2020305   0.3030458), wk =   0.0174927
        k(   14) = (  -0.2525381   0.2525381   0.3535534), wk =   0.0174927
        k(   15) = (   0.4040610  -0.4040610  -0.3030458), wk =   0.0174927
        k(   16) = (   0.3535534  -0.3535534  -0.2525381), wk =   0.0174927
        k(   17) = (   0.3030458  -0.3030458  -0.2020305), wk =   0.0174927
        k(   18) = (   0.2525381  -0.2525381  -0.1515229), wk =   0.0174927
        k(   19) = (   0.2020305  -0.2020305  -0.1010153), wk =   0.0174927
        k(   20) = (   0.1515229  -0.1515229  -0.0505076), wk =   0.0174927
        k(   21) = (   0.1010153  -0.1010153   0.0000000), wk =   0.0087464
        k(   22) = (   0.0000000  -0.0000000   0.2020305), wk =   0.0043732
        k(   23) = (  -0.0505076   0.0505076   0.2525381), wk =   0.0174927
        k(   24) = (  -0.1010153   0.1010153   0.3030458), wk =   0.0174927
        k(   25) = (  -0.1515229   0.1515229   0.3535534), wk =   0.0174927
        k(   26) = (  -0.2020305   0.2020305   0.4040610), wk =   0.0174927
        k(   27) = (   0.4545686  -0.4545686  -0.2525381), wk =   0.0174927
        k(   28) = (   0.4040610  -0.4040610  -0.2020305), wk =   0.0174927
        k(   29) = (   0.3535534  -0.3535534  -0.1515229), wk =   0.0174927
        k(   30) = (   0.3030458  -0.3030458  -0.1010153), wk =   0.0174927
        k(   31) = (   0.2525381  -0.2525381  -0.0505076), wk =   0.0174927
        k(   32) = (   0.2020305  -0.2020305  -0.0000000), wk =   0.0087464
        k(   33) = (   0.0000000  -0.0000000   0.3030458), wk =   0.0043732
        k(   34) = (  -0.0505076   0.0505076   0.3535534), wk =   0.0174927
        k(   35) = (  -0.1010153   0.1010153   0.4040610), wk =   0.0174927
        k(   36) = (  -0.1515229   0.1515229   0.4545686), wk =   0.0174927
        k(   37) = (   0.5050763  -0.5050763  -0.2020305), wk =   0.0174927
        k(   38) = (   0.4545686  -0.4545686  -0.1515229), wk =   0.0174927
        k(   39) = (   0.4040610  -0.4040610  -0.1010153), wk =   0.0174927
        k(   40) = (   0.3535534  -0.3535534  -0.0505076), wk =   0.0174927
        k(   41) = (   0.3030458  -0.3030458  -0.0000000), wk =   0.0087464
        k(   42) = (   0.0000000  -0.0000000   0.4040610), wk =   0.0043732
        k(   43) = (  -0.0505076   0.0505076   0.4545686), wk =   0.0174927
        k(   44) = (  -0.1010153   0.1010153   0.5050763), wk =   0.0174927
        k(   45) = (   0.5555839  -0.5555839  -0.1515229), wk =   0.0174927
        k(   46) = (   0.5050763  -0.5050763  -0.1010153), wk =   0.0174927
        k(   47) = (   0.4545686  -0.4545686  -0.0505076), wk =   0.0174927
        k(   48) = (   0.4040610  -0.4040610   0.0000000), wk =   0.0087464
        k(   49) = (  -0.0000000   0.0000000   0.5050763), wk =   0.0043732
        k(   50) = (  -0.0505076   0.0505076   0.5555839), wk =   0.0174927
        k(   51) = (   0.6060915  -0.6060915  -0.1010153), wk =   0.0174927
        k(   52) = (   0.5555839  -0.5555839  -0.0505076), wk =   0.0174927
        k(   53) = (   0.5050763  -0.5050763   0.0000000), wk =   0.0087464
        k(   54) = (   0.0000000  -0.0000000   0.6060915), wk =   0.0043732
        k(   55) = (   0.6565992  -0.6565992  -0.0505076), wk =   0.0174927
        k(   56) = (   0.6060915  -0.6060915  -0.0000000), wk =   0.0087464
        k(   57) = (   0.0000000   0.0000000  -0.7071068), wk =   0.0021866
        k(   58) = (   0.0000000   0.1010153   0.2020305), wk =   0.0174927
        k(   59) = (  -0.0505076   0.1515229   0.2525381), wk =   0.0349854
        k(   60) = (  -0.1010153   0.2020305   0.3030458), wk =   0.0349854
        k(   61) = (  -0.1515229   0.2525381   0.3535534), wk =   0.0349854
        k(   62) = (   0.5050763  -0.4040610  -0.3030458), wk =   0.0349854
        k(   63) = (   0.4545686  -0.3535534  -0.2525381), wk =   0.0174927
        k(   64) = (   0.0000000   0.1010153   0.3030458), wk =   0.0174927
        k(   65) = (  -0.0505076   0.1515229   0.3535534), wk =   0.0349854
        k(   66) = (  -0.1010153   0.2020305   0.4040610), wk =   0.0349854
        k(   67) = (   0.5555839  -0.4545686  -0.2525381), wk =   0.0349854
        k(   68) = (   0.5050763  -0.4040610  -0.2020305), wk =   0.0349854
        k(   69) = (   0.4545686  -0.3535534  -0.1515229), wk =   0.0349854
        k(   70) = (   0.4040610  -0.3030458  -0.1010153), wk =   0.0349854
        k(   71) = (   0.3535534  -0.2525381  -0.0505076), wk =   0.0349854
        k(   72) = (   0.3030458  -0.2020305  -0.0000000), wk =   0.0174927
        k(   73) = (  -0.0000000   0.1010153   0.4040610), wk =   0.0174927
        k(   74) = (  -0.0505076   0.1515229   0.4545686), wk =   0.0349854
        k(   75) = (   0.6060915  -0.5050763  -0.2020305), wk =   0.0349854
        k(   76) = (   0.5555839  -0.4545686  -0.1515229), wk =   0.0349854
        k(   77) = (   0.5050763  -0.4040610  -0.1010153), wk =   0.0349854
        k(   78) = (   0.4545686  -0.3535534  -0.0505076), wk =   0.0349854
        k(   79) = (   0.4040610  -0.3030458  -0.0000000), wk =   0.0174927
        k(   80) = (   0.0000000   0.1010153   0.5050763), wk =   0.0174927
        k(   81) = (   0.6565992  -0.5555839  -0.1515229), wk =   0.0349854
        k(   82) = (   0.6060915  -0.5050763  -0.1010153), wk =   0.0349854
        k(   83) = (   0.5555839  -0.4545686  -0.0505076), wk =   0.0349854
        k(   84) = (   0.5050763  -0.4040610   0.0000000), wk =   0.0174927
        k(   85) = (   0.7071068  -0.6060915  -0.1010153), wk =   0.0174927
        k(   86) = (   0.6565992  -0.5555839  -0.0505076), wk =   0.0349854
        k(   87) = (   0.6060915  -0.5050763   0.0000000), wk =   0.0174927
        k(   88) = (   0.0000000   0.1010153  -0.7071068), wk =   0.0087464
        k(   89) = (   0.0000000   0.2020305   0.4040610), wk =   0.0174927
        k(   90) = (   0.6565992  -0.4545686  -0.2525381), wk =   0.0349854
        k(   91) = (   0.6060915  -0.4040610  -0.2020305), wk =   0.0349854
        k(   92) = (   0.5555839  -0.3535534  -0.1515229), wk =   0.0174927
        k(   93) = (   0.7071068  -0.5050763  -0.2020305), wk =   0.0174927
        k(   94) = (   0.6565992  -0.4545686  -0.1515229), wk =   0.0349854
        k(   95) = (   0.6060915  -0.4040610  -0.1010153), wk =   0.0349854
        k(   96) = (   0.5555839  -0.3535534  -0.0505076), wk =   0.0349854
        k(   97) = (   0.5050763  -0.3030458  -0.0000000), wk =   0.0174927
        k(   98) = (   0.7071068  -0.5050763  -0.1010153), wk =   0.0174927
        k(   99) = (   0.6565992  -0.4545686  -0.0505076), wk =   0.0349854
        k(  100) = (   0.6060915  -0.4040610   0.0000000), wk =   0.0174927
        k(  101) = (  -0.0000000   0.2020305  -0.7071068), wk =   0.0087464
        k(  102) = (   0.7071068  -0.4040610  -0.1010153), wk =   0.0174927
        k(  103) = (   0.6565992  -0.3535534  -0.0505076), wk =   0.0174927
        k(  104) = (  -0.0000000   0.3030458  -0.7071068), wk =   0.0087464

                       cryst. coord.
        k(    1) = (   0.0000000   0.0000000   0.0000000), wk =   0.0007289
        k(    2) = (   0.0000000  -0.0000000   0.0714286), wk =   0.0058309
        k(    3) = (   0.0000000  -0.0000000   0.1428571), wk =   0.0058309
        k(    4) = (  -0.0000000   0.0000000   0.2142857), wk =   0.0058309
        k(    5) = (   0.0000000  -0.0000000   0.2857143), wk =   0.0058309
        k(    6) = (   0.0000000  -0.0000000   0.3571429), wk =   0.0058309
        k(    7) = (  -0.0000000   0.0000000   0.4285714), wk =   0.0058309
        k(    8) = (  -0.0000000   0.0000000  -0.5000000), wk =   0.0029155
        k(    9) = (  -0.0000000   0.0714286   0.0714286), wk =   0.0043732
        k(   10) = (  -0.0000000   0.0714286   0.1428571), wk =   0.0174927
        k(   11) = (  -0.0000000   0.0714286   0.2142857), wk =   0.0174927
        k(   12) = (  -0.0000000   0.0714286   0.2857143), wk =   0.0174927
        k(   13) = (   0.0000000   0.0714286   0.3571429), wk =   0.0174927
        k(   14) = (   0.0000000   0.0714286   0.4285714), wk =   0.0174927
        k(   15) = (  -0.0000000   0.0714286  -0.5000000), wk =   0.0174927
        k(   16) = (  -0.0000000   0.0714286  -0.4285714), wk =   0.0174927
        k(   17) = (   0.0000000   0.0714286  -0.3571429), wk =   0.0174927
        k(   18) = (  -0.0000000   0.0714286  -0.2857143), wk =   0.0174927
        k(   19) = (  -0.0000000   0.0714286  -0.2142857), wk =   0.0174927
        k(   20) = (  -0.0000000   0.0714286  -0.1428571), wk =   0.0174927
        k(   21) = (  -0.0000000   0.0714286  -0.0714286), wk =   0.0087464
        k(   22) = (  -0.0000000   0.1428571   0.1428571), wk =   0.0043732
        k(   23) = (  -0.0000000   0.1428571   0.2142857), wk =   0.0174927
        k(   24) = (  -0.0000000   0.1428571   0.2857143), wk =   0.0174927
        k(   25) = (  -0.0000000   0.1428571   0.3571429), wk =   0.0174927
        k(   26) = (  -0.0000000   0.1428571   0.4285714), wk =   0.0174927
        k(   27) = (   0.0000000   0.1428571  -0.5000000), wk =   0.0174927
        k(   28) = (  -0.0000000   0.1428571  -0.4285714), wk =   0.0174927
        k(   29) = (  -0.0000000   0.1428571  -0.3571429), wk =   0.0174927
        k(   30) = (   0.0000000   0.1428571  -0.2857143), wk =   0.0174927
        k(   31) = (  -0.0000000   0.1428571  -0.2142857), wk =   0.0174927
        k(   32) = (  -0.0000000   0.1428571  -0.1428571), wk =   0.0087464
        k(   33) = (   0.0000000   0.2142857   0.2142857), wk =   0.0043732
        k(   34) = (   0.0000000   0.2142857   0.2857143), wk =   0.0174927
        k(   35) = (   0.0000000   0.2142857   0.3571429), wk =   0.0174927
        k(   36) = (  -0.0000000   0.2142857   0.4285714), wk =   0.0174927
        k(   37) = (  -0.0000000   0.2142857  -0.5000000), wk =   0.0174927
        k(   38) = (   0.0000000   0.2142857  -0.4285714), wk =   0.0174927
        k(   39) = (   0.0000000   0.2142857  -0.3571429), wk =   0.0174927
        k(   40) = (  -0.0000000   0.2142857  -0.2857143), wk =   0.0174927
        k(   41) = (   0.0000000   0.2142857  -0.2142857), wk =   0.0087464
        k(   42) = (  -0.0000000   0.2857143   0.2857143), wk =   0.0043732
        k(   43) = (   0.0000000   0.2857143   0.3571429), wk =   0.0174927
        k(   44) = (  -0.0000000   0.2857143   0.4285714), wk =   0.0174927
        k(   45) = (   0.0000000   0.2857143  -0.5000000), wk =   0.0174927
        k(   46) = (  -0.0000000   0.2857143  -0.4285714), wk =   0.0174927
        k(   47) = (  -0.0000000   0.2857143  -0.3571429), wk =   0.0174927
        k(   48) = (  -0.0000000   0.2857143  -0.2857143), wk =   0.0087464
        k(   49) = (   0.0000000   0.3571429   0.3571429), wk =   0.0043732
        k(   50) = (   0.0000000   0.3571429   0.4285714), wk =   0.0174927
        k(   51) = (   0.0000000   0.3571429  -0.5000000), wk =   0.0174927
        k(   52) = (  -0.0000000   0.3571429  -0.4285714), wk =   0.0174927
        k(   53) = (  -0.0000000   0.3571429  -0.3571429), wk =   0.0087464
        k(   54) = (   0.0000000   0.4285714   0.4285714), wk =   0.0043732
        k(   55) = (  -0.0000000   0.4285714  -0.5000000), wk =   0.0174927
        k(   56) = (   0.0000000   0.4285714  -0.4285714), wk =   0.0087464
        k(   57) = (   0.0000000  -0.5000000  -0.5000000), wk =   0.0021866
        k(   58) = (   0.0714286   0.1428571   0.2142857), wk =   0.0174927
        k(   59) = (   0.0714286   0.1428571   0.2857143), wk =   0.0349854
        k(   60) = (   0.0714286   0.1428571   0.3571429), wk =   0.0349854
        k(   61) = (   0.0714286   0.1428571   0.4285714), wk =   0.0349854
        k(   62) = (   0.0714286   0.1428571  -0.5000000), wk =   0.0349854
        k(   63) = (   0.0714286   0.1428571  -0.4285714), wk =   0.0174927
        k(   64) = (   0.0714286   0.2142857   0.2857143), wk =   0.0174927
        k(   65) = (   0.0714286   0.2142857   0.3571429), wk =   0.0349854
        k(   66) = (   0.0714286   0.2142857   0.4285714), wk =   0.0349854
        k(   67) = (   0.0714286   0.2142857  -0.5000000), wk =   0.0349854
        k(   68) = (   0.0714286   0.2142857  -0.4285714), wk =   0.0349854
        k(   69) = (   0.0714286   0.2142857  -0.3571429), wk =   0.0349854
        k(   70) = (   0.0714286   0.2142857  -0.2857143), wk =   0.0349854
        k(   71) = (   0.0714286   0.2142857  -0.2142857), wk =   0.0349854
        k(   72) = (   0.0714286   0.2142857  -0.1428571), wk =   0.0174927
        k(   73) = (   0.0714286   0.2857143   0.3571429), wk =   0.0174927
        k(   74) = (   0.0714286   0.2857143   0.4285714), wk =   0.0349854
        k(   75) = (   0.0714286   0.2857143  -0.5000000), wk =   0.0349854
        k(   76) = (   0.0714286   0.2857143  -0.4285714), wk =   0.0349854
        k(   77) = (   0.0714286   0.2857143  -0.3571429), wk =   0.0349854
        k(   78) = (   0.0714286   0.2857143  -0.2857143), wk =   0.0349854
        k(   79) = (   0.0714286   0.2857143  -0.2142857), wk =   0.0174927
        k(   80) = (   0.0714286   0.3571429   0.4285714), wk =   0.0174927
        k(   81) = (   0.0714286   0.3571429  -0.5000000), wk =   0.0349854
        k(   82) = (   0.0714286   0.3571429  -0.4285714), wk =   0.0349854
        k(   83) = (   0.0714286   0.3571429  -0.3571429), wk =   0.0349854
        k(   84) = (   0.0714286   0.3571429  -0.2857143), wk =   0.0174927
        k(   85) = (   0.0714286   0.4285714  -0.5000000), wk =   0.0174927
        k(   86) = (   0.0714286   0.4285714  -0.4285714), wk =   0.0349854
        k(   87) = (   0.0714286   0.4285714  -0.3571429), wk =   0.0174927
        k(   88) = (   0.0714286  -0.5000000  -0.4285714), wk =   0.0087464
        k(   89) = (   0.1428571   0.2857143   0.4285714), wk =   0.0174927
        k(   90) = (   0.1428571   0.2857143  -0.5000000), wk =   0.0349854
        k(   91) = (   0.1428571   0.2857143  -0.4285714), wk =   0.0349854
        k(   92) = (   0.1428571   0.2857143  -0.3571429), wk =   0.0174927
        k(   93) = (   0.1428571   0.3571429  -0.5000000), wk =   0.0174927
        k(   94) = (   0.1428571   0.3571429  -0.4285714), wk =   0.0349854
        k(   95) = (   0.1428571   0.3571429  -0.3571429), wk =   0.0349854
        k(   96) = (   0.1428571   0.3571429  -0.2857143), wk =   0.0349854
        k(   97) = (   0.1428571   0.3571429  -0.2142857), wk =   0.0174927
        k(   98) = (   0.1428571   0.4285714  -0.4285714), wk =   0.0174927
        k(   99) = (   0.1428571   0.4285714  -0.3571429), wk =   0.0349854
        k(  100) = (   0.1428571   0.4285714  -0.2857143), wk =   0.0174927
        k(  101) = (   0.1428571  -0.5000000  -0.3571429), wk =   0.0087464
        k(  102) = (   0.2142857   0.4285714  -0.3571429), wk =   0.0174927
        k(  103) = (   0.2142857   0.4285714  -0.2857143), wk =   0.0174927
        k(  104) = (   0.2142857  -0.5000000  -0.2857143), wk =   0.0087464

     Dense  grid:    16889 G-vectors     FFT dimensions: (  36,  36,  36)

     Smooth grid:     5985 G-vectors     FFT dimensions: (  32,  32,  32)

     Dynamical RAM for                 wfc:       0.02 MB

     Dynamical RAM for     wfc (w. buffer):       1.60 MB

     Dynamical RAM for           str. fact:       0.04 MB

     Dynamical RAM for           local pot:       0.00 MB

     Dynamical RAM for          nlocal pot:       0.07 MB

     Dynamical RAM for                qrad:       1.24 MB

     Dynamical RAM for          rho,v,vnew:       0.31 MB

     Dynamical RAM for               rhoin:       0.10 MB

     Dynamical RAM for            rho*nmix:       0.69 MB

     Dynamical RAM for           G-vectors:       0.17 MB

     Dynamical RAM for          h,s,v(r/c):       0.01 MB

     Dynamical RAM for          <psi|beta>:       0.00 MB

     Dynamical RAM for                 psi:       0.03 MB

     Dynamical RAM for                hpsi:       0.03 MB

     Dynamical RAM for                spsi:       0.03 MB

     Dynamical RAM for      wfcinit/wfcrot:       0.03 MB

     Dynamical RAM for           addusdens:       8.08 MB

     Dynamical RAM for          addusforce:       8.20 MB

     Dynamical RAM for         addusstress:       8.64 MB

     Estimated static dynamical RAM per process >       3.92 MB

     Estimated max dynamical RAM per process >      13.25 MB

     Estimated total dynamical RAM >      79.48 MB

     Initial potential from superposition of free atoms

     starting charge       7.9989, renormalised to       8.0000
     Starting wfcs are    8 randomized atomic wfcs

     total cpu time spent up to now is        0.2 secs

     Self-consistent Calculation

     iteration #  1     ecut=    30.00 Ry     beta= 0.40
     Davidson diagonalization with overlap

---- Real-time Memory Report at c_bands before calling an iterative solver
             0 MiB given to the printing process from OS
             0 MiB allocation reported by mallinfo(arena+hblkhd)
             0 MiB available memory on the node where the printing process lives
------------------
     ethr =  1.00E-02,  avg # of iterations =  4.1

     Threshold (ethr) on eigenvalues was too large:
     Diagonalizing with lowered threshold

     Davidson diagonalization with overlap

---- Real-time Memory Report at c_bands before calling an iterative solver
             0 MiB given to the printing process from OS
             0 MiB allocation reported by mallinfo(arena+hblkhd)
             0 MiB available memory on the node where the printing process lives
------------------
     ethr =  6.45E-04,  avg # of iterations =  1.8

     total cpu time spent up to now is        0.7 secs

     WARNING: integrated charge=     8.00020210, expected=     8.00000000

     total energy              =     -22.84092723 Ry
     estimated scf accuracy    <       0.05548665 Ry

     iteration #  2     ecut=    30.00 Ry     beta= 0.40
     Davidson diagonalization with overlap

---- Real-time Memory Report at c_bands before calling an iterative solver
             0 MiB given to the printing process from OS
             0 MiB allocation reported by mallinfo(arena+hblkhd)
             0 MiB available memory on the node where the printing process lives
------------------
     ethr =  6.94E-04,  avg # of iterations =  1.0

     total cpu time spent up to now is        0.9 secs

     WARNING: integrated charge=     8.00119378, expected=     8.00000000

     total energy              =     -22.83804282 Ry
     estimated scf accuracy    <       0.01585197 Ry

     iteration #  3     ecut=    30.00 Ry     beta= 0.40
     Davidson diagonalization with overlap

---- Real-time Memory Report at c_bands before calling an iterative solver
             0 MiB given to the printing process from OS
             0 MiB allocation reported by mallinfo(arena+hblkhd)
             0 MiB available memory on the node where the printing process lives
------------------
     ethr =  1.98E-04,  avg # of iterations =  1.9

     total cpu time spent up to now is        1.1 secs

     WARNING: integrated charge=     8.00265590, expected=     8.00000000

     total energy              =     -22.83815775 Ry
     estimated scf accuracy    <       0.00022835 Ry

     iteration #  4     ecut=    30.00 Ry     beta= 0.40
     Davidson diagonalization with overlap

---- Real-time Memory Report at c_bands before calling an iterative solver
             0 MiB given to the printing process from OS
             0 MiB allocation reported by mallinfo(arena+hblkhd)
             0 MiB available memory on the node where the printing process lives
------------------
     ethr =  2.85E-06,  avg # of iterations =  6.8

     total cpu time spent up to now is        1.5 secs

     WARNING: integrated charge=     8.00269689, expected=     8.00000000

     total energy              =     -22.83833434 Ry
     estimated scf accuracy    <       0.00000456 Ry

     iteration #  5     ecut=    30.00 Ry     beta= 0.40
     Davidson diagonalization with overlap

---- Real-time Memory Report at c_bands before calling an iterative solver
             0 MiB given to the printing process from OS
             0 MiB allocation reported by mallinfo(arena+hblkhd)
             0 MiB available memory on the node where the printing process lives
------------------
     ethr =  5.70E-08,  avg # of iterations =  1.9

     total cpu time spent up to now is        1.7 secs

     WARNING: integrated charge=     8.00262341, expected=     8.00000000

     total energy              =     -22.83833107 Ry
     estimated scf accuracy    <       0.00000011 Ry

     iteration #  6     ecut=    30.00 Ry     beta= 0.40
     Davidson diagonalization with overlap

---- Real-time Memory Report at c_bands before calling an iterative solver
             0 MiB given to the printing process from OS
             0 MiB allocation reported by mallinfo(arena+hblkhd)
             0 MiB available memory on the node where the printing process lives
------------------
     ethr =  1.41E-09,  avg # of iterations =  2.6

     total cpu time spent up to now is        2.0 secs

     WARNING: integrated charge=     8.00261015, expected=     8.00000000

     total energy              =     -22.83833108 Ry
     estimated scf accuracy    <       0.00000004 Ry

     iteration #  7     ecut=    30.00 Ry     beta= 0.40
     Davidson diagonalization with overlap

---- Real-time Memory Report at c_bands before calling an iterative solver
             0 MiB given to the printing process from OS
             0 MiB allocation reported by mallinfo(arena+hblkhd)
             0 MiB available memory on the node where the printing process lives
------------------
     ethr =  4.81E-10,  avg # of iterations =  1.5

     total cpu time spent up to now is        2.2 secs

     WARNING: integrated charge=     8.00261592, expected=     8.00000000

     total energy              =     -22.83833313 Ry
     estimated scf accuracy    <          1.3E-09 Ry

     iteration #  8     ecut=    30.00 Ry     beta= 0.40
     Davidson diagonalization with overlap

---- Real-time Memory Report at c_bands before calling an iterative solver
             0 MiB given to the printing process from OS
             0 MiB allocation reported by mallinfo(arena+hblkhd)
             0 MiB available memory on the node where the printing process lives
------------------
     ethr =  1.61E-11,  avg # of iterations =  3.6

     total cpu time spent up to now is        2.4 secs

     WARNING: integrated charge=     8.00261210, expected=     8.00000000

     total energy              =     -22.83833378 Ry
     estimated scf accuracy    <          8.2E-10 Ry

     iteration #  9     ecut=    30.00 Ry     beta= 0.40
     Davidson diagonalization with overlap

---- Real-time Memory Report at c_bands before calling an iterative solver
             0 MiB given to the printing process from OS
             0 MiB allocation reported by mallinfo(arena+hblkhd)
             0 MiB available memory on the node where the printing process lives
------------------
     ethr =  1.03E-11,  avg # of iterations =  1.0

     total cpu time spent up to now is        2.6 secs

     End of self-consistent calculation

          k = 0.0000 0.0000 0.0000 (   749 PWs)   bands (ev):

    -5.7605   6.2008   6.2008   6.2008   8.7634   8.7634   8.7634   9.5587

     occupation numbers 
     1.0000   1.0825   1.0825   1.0825   0.0000   0.0000   0.0000   0.0000

          k =-0.0505 0.0505 0.0505 (   737 PWs)   bands (ev):

    -5.6936   5.5343   6.0923   6.0923   8.8221   8.9229   8.9229  10.0537

     occupation numbers 
     1.0000   1.0000   1.0529   1.0529   0.0000   0.0000   0.0000   0.0000

          k =-0.1010 0.1010 0.1010 (   743 PWs)   bands (ev):

    -5.4945   4.2678   5.8432   5.8432   8.6397   9.2854   9.2854  11.2222

     occupation numbers 
     1.0000   1.0000   1.0036   1.0036   0.0000   0.0000   0.0000   0.0000

          k =-0.1515 0.1515 0.1515 (   757 PWs)   bands (ev):

    -5.1684   2.9246   5.5672   5.5672   8.3634   9.6171   9.6171  12.5022

     occupation numbers 
     1.0000   1.0000   1.0000   1.0000   0.0000   0.0000   0.0000   0.0000

          k =-0.2020 0.2020 0.2020 (   757 PWs)   bands (ev):

    -4.7278   1.6457   5.3267   5.3267   8.1039   9.7374   9.7374  13.6602

     occupation numbers 
     1.0000   1.0000   1.0000   1.0000   0.0000   0.0000   0.0000   0.0000

          k =-0.2525 0.2525 0.2525 (   757 PWs)   bands (ev):

    -4.2038   0.5052   5.1471   5.1471   7.9033   9.6786   9.6786  14.1022

     occupation numbers 
     1.0000   1.0000   1.0000   1.0000   0.0000   0.0000   0.0000   0.0000

          k =-0.3030 0.3030 0.3030 (   760 PWs)   bands (ev):

    -3.6860  -0.3881   5.0377   5.0377   7.7789   9.5832   9.5832  13.9959

     occupation numbers 
     1.0000   1.0000   1.0000   1.0000   0.0000   0.0000   0.0000   0.0000

          k = 0.3536-0.3536-0.3536 (   754 PWs)   bands (ev):

    -3.4300  -0.7701   5.0011   5.0011   7.7368   9.5425   9.5425  13.9340

     occupation numbers 
     1.0000   1.0000   1.0000   1.0000   0.0000   0.0000   0.0000   0.0000

          k = 0.0000-0.0000 0.1010 (   741 PWs)   bands (ev):

    -5.6713   5.6680   5.8689   5.8689   8.5569   9.2051   9.2051  10.0607

     occupation numbers 
     1.0000   1.0002   1.0052   1.0052   0.0000   0.0000   0.0000   0.0000

          k =-0.0505 0.0505 0.1515 (   749 PWs)   bands (ev):

    -5.5159   4.6447   5.5642   5.7477   8.5620   9.3021   9.6479  10.8709

     occupation numbers 
     1.0000   1.0000   1.0000   1.0008   0.0000   0.0000   0.0000   0.0000

          k =-0.1010 0.1010 0.2020 (   749 PWs)   bands (ev):

    -5.2315   3.3520   5.2745   5.5002   8.6727   9.2916  10.0462  11.6241

     occupation numbers 
     1.0000   1.0000   1.0000   1.0000   0.0000   0.0000   0.0000   0.0000

          k =-0.1515 0.1515 0.2525 (   757 PWs)   bands (ev):

    -4.8273   2.0677   5.0469   5.2014   8.5438   9.4443  10.2112  12.0306

     occupation numbers 
     1.0000   1.0000   1.0000   1.0000   0.0000   0.0000   0.0000   0.0000

          k =-0.2020 0.2020 0.3030 (   760 PWs)   bands (ev):

    -4.3257   0.8861   4.9005   4.9250   8.3580   9.4845  10.1334  12.7232

     occupation numbers 
     1.0000   1.0000   1.0000   1.0000   0.0000   0.0000   0.0000   0.0000

          k =-0.2525 0.2525 0.3536 (   756 PWs)   bands (ev):

    -3.7882  -0.1014   4.7028   4.8413   8.2190   9.4535   9.9591  13.6316

     occupation numbers 
     1.0000   1.0000   1.0000   1.0000   0.0000   0.0000   0.0000   0.0000

          k = 0.4041-0.4041-0.3030 (   751 PWs)   bands (ev):

    -3.4027  -0.6936   4.5501   4.8680   8.1533   9.4646   9.8058  14.1259

     occupation numbers 
     1.0000   1.0000   1.0000   1.0000   0.0000   0.0000   0.0000   0.0000

          k = 0.3536-0.3536-0.2525 (   752 PWs)   bands (ev):

    -3.4937  -0.5607   4.4766   4.9753   8.1679   9.5602   9.7226  14.1807

     occupation numbers 
     1.0000   1.0000   1.0000   1.0000   0.0000   0.0000   0.0000   0.0000

          k = 0.3030-0.3030-0.2020 (   758 PWs)   bands (ev):

    -3.9649   0.1998   4.4894   5.1544   8.2625   9.7050   9.7283  13.9425

     occupation numbers 
     1.0000   1.0000   1.0000   1.0000   0.0000   0.0000   0.0000   0.0000

          k = 0.2525-0.2525-0.1515 (   756 PWs)   bands (ev):

    -4.5020   1.2656   4.5940   5.3928   8.4316   9.6875   9.8948  13.1939

     occupation numbers 
     1.0000   1.0000   1.0000   1.0000   0.0000   0.0000   0.0000   0.0000

          k = 0.2020-0.2020-0.1010 (   755 PWs)   bands (ev):

    -4.9749   2.4870   4.7932   5.6686   8.6603   9.5430   9.8929  12.4193

     occupation numbers 
     1.0000   1.0000   1.0000   1.0002   0.0000   0.0000   0.0000   0.0000

          k = 0.1515-0.1515-0.0505 (   752 PWs)   bands (ev):

    -5.3406   3.7706   5.0913   5.9388   8.9117   9.2319   9.5719  11.6595

     occupation numbers 
     1.0000   1.0000   1.0000   1.0128   0.0000   0.0000   0.0000   0.0000

          k = 0.1010-0.1010 0.0000 (   741 PWs)   bands (ev):

    -5.5826   4.9231   5.5354   6.1163   8.9468   9.0753   9.0904  10.7179

     occupation numbers 
     1.0000   1.0000   1.0000   1.0612   0.0000   0.0000   0.0000   0.0000

          k = 0.0000-0.0000 0.2020 (   753 PWs)   bands (ev):

    -5.4045   4.5691   5.2268   5.2268   8.0824  10.1720  10.1720  10.6308

     occupation numbers 
     1.0000   1.0000   1.0000   1.0000   0.0000   0.0000   0.0000   0.0000

          k =-0.0505 0.0505 0.2525 (   756 PWs)   bands (ev):

    -5.1627   3.6174   4.9190   4.9772   8.0614  10.1695  10.6764  10.7988

     occupation numbers 
     1.0000   1.0000   1.0000   1.0000   0.0000   0.0000   0.0000   0.0000

          k =-0.1010 0.1010 0.3030 (   752 PWs)   bands (ev):

    -4.7974   2.4416   4.6450   4.6837   8.2780  10.1135  10.7632  10.9564

     occupation numbers 
     1.0000   1.0000   1.0000   1.0000   0.0000   0.0000   0.0000   0.0000

          k =-0.1515 0.1515 0.3536 (   751 PWs)   bands (ev):

    -4.3250   1.2834   4.2808   4.5400   8.3649  10.1382  10.9323  11.0773

     occupation numbers 
     1.0000   1.0000   1.0000   1.0000   0.0000   0.0000   0.0000   0.0000

          k =-0.2020 0.2020 0.4041 (   748 PWs)   bands (ev):

    -3.7876   0.2534   3.9559   4.4948   8.3443  10.0296  10.7363  11.9911

     occupation numbers 
     1.0000   1.0000   1.0000   1.0000   0.0000   0.0000   0.0000   0.0000

          k = 0.4546-0.4546-0.2525 (   748 PWs)   bands (ev):

    -3.3153  -0.4893   3.7032   4.5477   8.3540   9.9445  10.5145  13.1793

     occupation numbers 
     1.0000   1.0000   1.0000   1.0000   0.0000   0.0000   0.0000   0.0000

          k = 0.4041-0.4041-0.2020 (   749 PWs)   bands (ev):

    -3.2275  -0.6131   3.5407   4.6932   8.4456   9.9371  10.3386  14.3794

     occupation numbers 
     1.0000   1.0000   1.0000   1.0000   0.0000   0.0000   0.0000   0.0000

          k = 0.3536-0.3536-0.1515 (   755 PWs)   bands (ev):

    -3.6187  -0.0233   3.4824   4.9200   8.6196  10.0147  10.2190  13.8847

     occupation numbers 
     1.0000   1.0000   1.0000   1.0000   0.0000   0.0000   0.0000   0.0000

          k = 0.3030-0.3030-0.1010 (   749 PWs)   bands (ev):

    -4.1566   0.9347   3.5438   5.2084   8.8522  10.1017  10.1365  12.8617

     occupation numbers 
     1.0000   1.0000   1.0000   1.0000   0.0000   0.0000   0.0000   0.0000

          k = 0.2525-0.2525-0.0505 (   751 PWs)   bands (ev):

    -4.6562   2.0319   3.7576   5.5240   9.1024   9.8647  10.1247  12.0931

     occupation numbers 
     1.0000   1.0000   1.0000   1.0000   0.0000   0.0000   0.0000   0.0000

          k = 0.2020-0.2020-0.0000 (   753 PWs)   bands (ev):

    -5.0582   3.0622   4.2326   5.8028   9.2607   9.4956   9.7591  11.8384

     occupation numbers 
     1.0000   1.0000   1.0000   1.0020   0.0000   0.0000   0.0000   0.0000

          k = 0.0000-0.0000 0.3030 (   745 PWs)   bands (ev):

    -4.9633   3.3218   4.5913   4.5913   7.5635   9.8810  11.3381  11.3381

     occupation numbers 
     1.0000   1.0000   1.0000   1.0000   0.0000   0.0000   0.0000   0.0000

          k =-0.0505 0.0505 0.3536 (   747 PWs)   bands (ev):

    -4.6384   2.5005   4.2379   4.3373   7.5779   9.4942  11.6174  11.8164

     occupation numbers 
     1.0000   1.0000   1.0000   1.0000   0.0000   0.0000   0.0000   0.0000

          k =-0.1010 0.1010 0.4041 (   751 PWs)   bands (ev):

    -4.1996   1.5189   3.7668   4.1783   7.8043   9.6083  11.5226  11.9351

     occupation numbers 
     1.0000   1.0000   1.0000   1.0000   0.0000   0.0000   0.0000   0.0000

          k =-0.1515 0.1515 0.4546 (   754 PWs)   bands (ev):

    -3.6761   0.5507   3.3068   4.1231   7.8930  10.3478  11.3566  11.7783

     occupation numbers 
     1.0000   1.0000   1.0000   1.0000   0.0000   0.0000   0.0000   0.0000

          k = 0.5051-0.5051-0.2020 (   749 PWs)   bands (ev):

    -3.1550  -0.2519   2.9316   4.1731   7.9506  11.1368  11.5312  11.5612

     occupation numbers 
     1.0000   1.0000   1.0000   1.0000   0.0000   0.0000   0.0000   0.0000

          k = 0.4546-0.4546-0.1515 (   753 PWs)   bands (ev):

    -2.9033  -0.5919   2.6713   4.3242   8.0895  11.0751  11.2958  12.8801

     occupation numbers 
     1.0000   1.0000   1.0000   1.0000   0.0000   0.0000   0.0000   0.0000

          k = 0.4041-0.4041-0.1010 (   749 PWs)   bands (ev):

    -3.1820  -0.2047   2.5497   4.5660   8.3320  11.0421  11.0921  13.8103

     occupation numbers 
     1.0000   1.0000   1.0000   1.0000   0.0000   0.0000   0.0000   0.0000

          k = 0.3536-0.3536-0.0505 (   752 PWs)   bands (ev):

    -3.7056   0.5900   2.6096   4.8780   8.6559  10.8463  11.0222  12.6865

     occupation numbers 
     1.0000   1.0000   1.0000   1.0000   0.0000   0.0000   0.0000   0.0000

          k = 0.3030-0.3030-0.0000 (   754 PWs)   bands (ev):

    -4.2239   1.4198   2.9658   5.2216   8.9893  10.4044  10.7348  12.0208

     occupation numbers 
     1.0000   1.0000   1.0000   1.0000   0.0000   0.0000   0.0000   0.0000

          k = 0.0000-0.0000 0.4041 (   745 PWs)   bands (ev):

    -4.3533   2.0400   4.0603   4.0603   7.1327   8.8144  12.5955  12.5955

     occupation numbers 
     1.0000   1.0000   1.0000   1.0000   0.0004   0.0000   0.0000   0.0000

          k =-0.0505 0.0505 0.4546 (   746 PWs)   bands (ev):

    -3.9506   1.3180   3.6669   3.8776   7.2089   8.5377  12.8972  13.0091

     occupation numbers 
     1.0000   1.0000   1.0000   1.0000   0.0001   0.0000   0.0000   0.0000

          k =-0.1010 0.1010 0.5051 (   756 PWs)   bands (ev):

    -3.4501   0.5346   3.0802   3.8002   7.4157   8.9037  12.8262  12.9857

     occupation numbers 
     1.0000   1.0000   1.0000   1.0000   0.0000   0.0000   0.0000   0.0000

          k = 0.5556-0.5556-0.1515 (   750 PWs)   bands (ev):

    -2.9092  -0.1956   2.5288   3.8316   7.5099   9.8826  12.6774  12.7566

     occupation numbers 
     1.0000   1.0000   1.0000   1.0000   0.0000   0.0000   0.0000   0.0000

          k = 0.5051-0.5051-0.1010 (   750 PWs)   bands (ev):

    -2.5303  -0.6472   2.1254   3.9694   7.6559  11.1486  12.4828  12.5668

     occupation numbers 
     1.0000   1.0000   1.0000   1.0000   0.0000   0.0000   0.0000   0.0000

          k = 0.4546-0.4546-0.0505 (   745 PWs)   bands (ev):

    -2.6849  -0.4570   1.9333   4.2049   7.9110  12.1752  12.1793  12.8823

     occupation numbers 
     1.0000   1.0000   1.0000   1.0000   0.0000   0.0000   0.0000   0.0000

          k = 0.4041-0.4041 0.0000 (   744 PWs)   bands (ev):

    -3.1819   0.1054   2.0505   4.5199   8.2653  11.6605  11.9991  12.8258

     occupation numbers 
     1.0000   1.0000   1.0000   1.0000   0.0000   0.0000   0.0000   0.0000

          k =-0.0000 0.0000 0.5051 (   757 PWs)   bands (ev):

    -3.5831   0.7668   3.6677   3.6677   6.8573   7.9264  13.9071  13.9071

     occupation numbers 
     1.0000   1.0000   1.0000   1.0000   0.0365   0.0000   0.0000   0.0000

          k =-0.0505 0.0505 0.5556 (   752 PWs)   bands (ev):

    -3.1106   0.1182   3.2873   3.5627   6.9991   7.8192  14.2344  14.2452

     occupation numbers 
     1.0000   1.0000   1.0000   1.0000   0.0047   0.0000   0.0000   0.0000

          k = 0.6061-0.6061-0.1010 (   751 PWs)   bands (ev):

    -2.5697  -0.5080   2.6670   3.5678   7.1641   8.4793  14.1171  14.1834

     occupation numbers 
     1.0000   1.0000   1.0000   1.0000   0.0002   0.0000   0.0000   0.0000

          k = 0.5556-0.5556-0.0505 (   744 PWs)   bands (ev):

    -2.1110  -0.9668   2.1090   3.6825   7.3046   9.6559  13.8095  14.0425

     occupation numbers 
     1.0000   1.0000   1.0000   1.0000   0.0000   0.0000   0.0000   0.0000

          k = 0.5051-0.5051 0.0000 (   740 PWs)   bands (ev):

    -2.2091  -0.8477   1.8069   3.9000   7.5522  11.0591  13.2341  13.7769

     occupation numbers 
     1.0000   1.0000   1.0000   1.0000   0.0000   0.0000   0.0000   0.0000

          k = 0.0000-0.0000 0.6061 (   749 PWs)   bands (ev):

    -2.6653  -0.4635   3.4279   3.4279   6.7752   7.2915  15.2508  15.2508

     occupation numbers 
     1.0000   1.0000   1.0000   1.0000   0.0941   0.0000   0.0000   0.0000

          k = 0.6566-0.6566-0.0505 (   751 PWs)   bands (ev):

    -2.1357  -1.0465   3.0984   3.4032   6.9501   7.3971  15.4906  15.5840

     occupation numbers 
     1.0000   1.0000   1.0000   1.0000   0.0102   0.0000   0.0000   0.0000

          k = 0.6061-0.6061-0.0000 (   752 PWs)   bands (ev):

    -1.7133  -1.4245   2.5316   3.4896   7.0769   8.3393  15.0275  15.4786

     occupation numbers 
     1.0000   1.0000   1.0000   1.0000   0.0012   0.0000   0.0000   0.0000

          k = 0.0000 0.0000-0.7071 (   740 PWs)   bands (ev):

    -1.6175  -1.6175   3.3474   3.3474   6.9128   6.9128  16.3023  16.3023

     occupation numbers 
     1.0000   1.0000   1.0000   1.0000   0.0175   0.0175   0.0000   0.0000

          k = 0.0000 0.1010 0.2020 (   756 PWs)   bands (ev):

    -5.3176   3.9476   4.8882   5.6627   8.5553   9.5963  10.0177  11.2146

     occupation numbers 
     1.0000   1.0000   1.0000   1.0002   0.0000   0.0000   0.0000   0.0000

          k =-0.0505 0.1515 0.2525 (   757 PWs)   bands (ev):

    -4.9926   2.8547   4.4166   5.4554   8.7756   9.5823  10.4256  11.2771

     occupation numbers 
     1.0000   1.0000   1.0000   1.0000   0.0000   0.0000   0.0000   0.0000

          k =-0.1010 0.2020 0.3030 (   756 PWs)   bands (ev):

    -4.5534   1.6686   4.1393   5.1743   8.8284   9.5800  10.5725  11.5856

     occupation numbers 
     1.0000   1.0000   1.0000   1.0000   0.0000   0.0000   0.0000   0.0000

          k =-0.1515 0.2525 0.3536 (   757 PWs)   bands (ev):

    -4.0301   0.5700   3.9746   4.9152   8.7372   9.5016  10.5118  12.3795

     occupation numbers 
     1.0000   1.0000   1.0000   1.0000   0.0000   0.0000   0.0000   0.0000

          k = 0.5051-0.4041-0.3030 (   755 PWs)   bands (ev):

    -3.5108  -0.3058   3.8921   4.7343   8.6552   9.3934  10.4141  13.4592

     occupation numbers 
     1.0000   1.0000   1.0000   1.0000   0.0000   0.0000   0.0000   0.0000

          k = 0.4546-0.3536-0.2525 (   752 PWs)   bands (ev):

    -3.2521  -0.6849   3.8684   4.6689   8.6258   9.3479  10.3727  14.3353

     occupation numbers 
     1.0000   1.0000   1.0000   1.0000   0.0000   0.0000   0.0000   0.0000

          k = 0.0000 0.1010 0.3030 (   755 PWs)   bands (ev):

    -4.8797   2.9124   4.2506   4.8932   8.0582  10.0745  10.7807  11.2259

     occupation numbers 
     1.0000   1.0000   1.0000   1.0000   0.0000   0.0000   0.0000   0.0000

          k =-0.0505 0.1515 0.3536 (   754 PWs)   bands (ev):

    -4.4776   1.9442   3.7786   4.6628   8.3271  10.0948  10.6024  11.6043

     occupation numbers 
     1.0000   1.0000   1.0000   1.0000   0.0000   0.0000   0.0000   0.0000

          k =-0.1010 0.2020 0.4041 (   753 PWs)   bands (ev):

    -3.9777   0.9141   3.4663   4.4203   8.4706  10.3147  10.7153  11.6586

     occupation numbers 
     1.0000   1.0000   1.0000   1.0000   0.0000   0.0000   0.0000   0.0000

          k = 0.5556-0.4546-0.2525 (   750 PWs)   bands (ev):

    -3.4390  -0.0010   3.2368   4.2778   8.5173  10.0608  11.5498  11.7737

     occupation numbers 
     1.0000   1.0000   1.0000   1.0000   0.0000   0.0000   0.0000   0.0000

          k = 0.5051-0.4041-0.2020 (   750 PWs)   bands (ev):

    -3.0494  -0.5663   3.0684   4.2756   8.6100   9.8546  11.4569  13.0513

     occupation numbers 
     1.0000   1.0000   1.0000   1.0000   0.0000   0.0000   0.0000   0.0000

          k = 0.4546-0.3536-0.1515 (   750 PWs)   bands (ev):

    -3.1481  -0.4272   2.9762   4.4074   8.7902   9.7234  11.4002  13.3817

     occupation numbers 
     1.0000   1.0000   1.0000   1.0000   0.0000   0.0000   0.0000   0.0000

          k = 0.4041-0.3030-0.1010 (   754 PWs)   bands (ev):

    -3.6261   0.3002   2.9902   4.6463   9.0447   9.6592  11.3641  12.1991

     occupation numbers 
     1.0000   1.0000   1.0000   1.0000   0.0000   0.0000   0.0000   0.0000

          k = 0.3536-0.2525-0.0505 (   750 PWs)   bands (ev):

    -4.1619   1.2529   3.1589   4.9526   9.3103   9.5764  11.1814  11.4132

     occupation numbers 
     1.0000   1.0000   1.0000   1.0000   0.0000   0.0000   0.0000   0.0000

          k = 0.3030-0.2020-0.0000 (   750 PWs)   bands (ev):

    -4.6309   2.1779   3.5943   5.2607   9.1700   9.5936  10.9428  11.0265

     occupation numbers 
     1.0000   1.0000   1.0000   1.0000   0.0000   0.0000   0.0000   0.0000

          k =-0.0000 0.1010 0.4041 (   748 PWs)   bands (ev):

    -4.2752   1.8178   3.7255   4.1726   7.6372   9.1412  11.7565  12.5293

     occupation numbers 
     1.0000   1.0000   1.0000   1.0000   0.0000   0.0000   0.0000   0.0000

          k =-0.0505 0.1515 0.4546 (   754 PWs)   bands (ev):

    -3.8052   1.0029   3.2325   3.9497   7.9316   9.3016  11.5604  12.8864

     occupation numbers 
     1.0000   1.0000   1.0000   1.0000   0.0000   0.0000   0.0000   0.0000

          k = 0.6061-0.5051-0.2020 (   748 PWs)   bands (ev):

    -3.2677   0.1794   2.7949   3.8299   8.0627  10.1215  11.3030  12.8849

     occupation numbers 
     1.0000   1.0000   1.0000   1.0000   0.0000   0.0000   0.0000   0.0000

          k = 0.5556-0.4546-0.1515 (   745 PWs)   bands (ev):

    -2.7909  -0.4609   2.4513   3.8557   8.1763  10.9264  11.4579  12.7756

     occupation numbers 
     1.0000   1.0000   1.0000   1.0000   0.0000   0.0000   0.0000   0.0000

          k = 0.5051-0.4041-0.1010 (   746 PWs)   bands (ev):

    -2.7207  -0.5428   2.2419   4.0128   8.3794  10.7848  12.5878  12.8297

     occupation numbers 
     1.0000   1.0000   1.0000   1.0000   0.0000   0.0000   0.0000   0.0000

          k = 0.4546-0.3536-0.0505 (   750 PWs)   bands (ev):

    -3.1355  -0.0044   2.2176   4.2770   8.6817  10.6097  12.0981  12.5321

     occupation numbers 
     1.0000   1.0000   1.0000   1.0000   0.0000   0.0000   0.0000   0.0000

          k = 0.4041-0.3030-0.0000 (   754 PWs)   bands (ev):

    -3.6722   0.6963   2.4821   4.6123   9.0486  10.2208  11.3535  12.1059

     occupation numbers 
     1.0000   1.0000   1.0000   1.0000   0.0000   0.0000   0.0000   0.0000

          k = 0.0000 0.1010 0.5051 (   753 PWs)   bands (ev):

    -3.5140   0.6733   3.3498   3.6218   7.3595   8.3053  12.9095  13.8823

     occupation numbers 
     1.0000   1.0000   1.0000   1.0000   0.0000   0.0000   0.0000   0.0000

          k = 0.6566-0.5556-0.1515 (   746 PWs)   bands (ev):

    -2.9915   0.0011   2.8198   3.4734   7.6536   8.7135  12.6733  14.2299

     occupation numbers 
     1.0000   1.0000   1.0000   1.0000   0.0000   0.0000   0.0000   0.0000

          k = 0.6061-0.5051-0.1010 (   743 PWs)   bands (ev):

    -2.4663  -0.5938   2.2809   3.5003   7.7883   9.7767  12.4040  14.1782

     occupation numbers 
     1.0000   1.0000   1.0000   1.0000   0.0000   0.0000   0.0000   0.0000

          k = 0.5556-0.4546-0.0505 (   745 PWs)   bands (ev):

    -2.2556  -0.8053   1.9199   3.6592   7.9863  11.0892  12.1851  13.4837

     occupation numbers 
     1.0000   1.0000   1.0000   1.0000   0.0000   0.0000   0.0000   0.0000

          k = 0.5051-0.4041 0.0000 (   736 PWs)   bands (ev):

    -2.6126  -0.4384   1.8565   3.9282   8.2918  11.5813  12.3845  12.7483

     occupation numbers 
     1.0000   1.0000   1.0000   1.0000   0.0000   0.0000   0.0000   0.0000

          k = 0.7071-0.6061-0.1010 (   749 PWs)   bands (ev):

    -2.6112  -0.4795   3.1413   3.2687   7.2630   7.7162  14.1341  15.2465

     occupation numbers 
     1.0000   1.0000   1.0000   1.0000   0.0000   0.0000   0.0000   0.0000

          k = 0.6566-0.5556-0.0505 (   746 PWs)   bands (ev):

    -2.0663  -1.0294   2.5972   3.2469   7.5129   8.4156  13.8791  15.1235

     occupation numbers 
     1.0000   1.0000   1.0000   1.0000   0.0000   0.0000   0.0000   0.0000

          k = 0.6061-0.5051 0.0000 (   743 PWs)   bands (ev):

    -1.8428  -1.2038   2.0934   3.3958   7.6930   9.6636  13.4591  13.8230

     occupation numbers 
     1.0000   1.0000   1.0000   1.0000   0.0000   0.0000   0.0000   0.0000

          k = 0.0000 0.1010-0.7071 (   758 PWs)   bands (ev):

    -1.5890  -1.5890   3.1112   3.1112   7.3745   7.3745  15.3982  15.3983

     occupation numbers 
     1.0000   1.0000   1.0000   1.0000   0.0000   0.0000   0.0000   0.0000

          k = 0.0000 0.2020 0.4041 (   753 PWs)   bands (ev):

    -4.0443   1.3016   3.0831   4.4112   8.7861  10.0400  10.3453  12.3487

     occupation numbers 
     1.0000   1.0000   1.0000   1.0000   0.0000   0.0000   0.0000   0.0000

          k = 0.6566-0.4546-0.2525 (   751 PWs)   bands (ev):

    -3.5251   0.5119   2.6880   4.1032   9.1319  10.0006  10.5822  12.7286

     occupation numbers 
     1.0000   1.0000   1.0000   1.0000   0.0000   0.0000   0.0000   0.0000

          k = 0.6061-0.4041-0.2020 (   750 PWs)   bands (ev):

    -3.0007  -0.2338   2.5112   3.8726   9.2715   9.6882  11.6766  12.8016

     occupation numbers 
     1.0000   1.0000   1.0000   1.0000   0.0000   0.0000   0.0000   0.0000

          k = 0.5556-0.3536-0.1515 (   742 PWs)   bands (ev):

    -2.7306  -0.5863   2.4625   3.7881   9.4068   9.4726  12.8094  13.2236

     occupation numbers 
     1.0000   1.0000   1.0000   1.0000   0.0000   0.0000   0.0000   0.0000

          k = 0.7071-0.5051-0.2020 (   757 PWs)   bands (ev):

    -3.3129   0.4000   2.7422   3.6045   8.5202   9.2961  11.2729  13.8077

     occupation numbers 
     1.0000   1.0000   1.0000   1.0000   0.0000   0.0000   0.0000   0.0000

          k = 0.6566-0.4546-0.1515 (   747 PWs)   bands (ev):

    -2.7732  -0.2371   2.3734   3.3500   8.8519  10.0240  10.9833  14.1978

     occupation numbers 
     1.0000   1.0000   1.0000   1.0000   0.0000   0.0000   0.0000   0.0000

          k = 0.6061-0.4041-0.1010 (   743 PWs)   bands (ev):

    -2.3700  -0.6890   2.1254   3.2981   9.0259  10.5595  11.4313  13.1620

     occupation numbers 
     1.0000   1.0000   1.0000   1.0000   0.0000   0.0000   0.0000   0.0000

          k = 0.5556-0.3536-0.0505 (   746 PWs)   bands (ev):

    -2.5020  -0.5394   2.0380   3.4416   9.2755  10.3743  11.6985  12.9214

     occupation numbers 
     1.0000   1.0000   1.0000   1.0000   0.0000   0.0000   0.0000   0.0000

          k = 0.5051-0.3030-0.0000 (   745 PWs)   bands (ev):

    -2.9996  -0.0002   2.1962   3.7332   9.6116   9.9890  10.7472  13.6791

     occupation numbers 
     1.0000   1.0000   1.0000   1.0000   0.0000   0.0000   0.0000   0.0000

          k = 0.7071-0.5051-0.1010 (   744 PWs)   bands (ev):

    -2.4597  -0.5493   2.5988   3.0101   8.4140   8.7820  12.3600  14.8799

     occupation numbers 
     1.0000   1.0000   1.0000   1.0000   0.0000   0.0000   0.0000   0.0000

          k = 0.6566-0.4546-0.0505 (   745 PWs)   bands (ev):

    -1.9682  -1.0173   2.2230   2.9161   8.7028   9.7975  12.0673  13.3308

     occupation numbers 
     1.0000   1.0000   1.0000   1.0000   0.0000   0.0000   0.0000   0.0000

          k = 0.6061-0.4041 0.0000 (   737 PWs)   bands (ev):

    -2.0213  -0.9473   1.9575   3.1024   8.9411  11.0459  11.8541  11.9945

     occupation numbers 
     1.0000   1.0000   1.0000   1.0000   0.0000   0.0000   0.0000   0.0000

          k =-0.0000 0.2020-0.7071 (   742 PWs)   bands (ev):

    -1.5212  -1.5212   2.6789   2.6789   8.4942   8.4942  13.5826  13.5826

     occupation numbers 
     1.0000   1.0000   1.0000   1.0000   0.0000   0.0000   0.0000   0.0000

          k = 0.7071-0.4041-0.1010 (   745 PWs)   bands (ev):

    -2.2445  -0.7091   2.1503   2.9317   9.8856  10.0751  10.7581  13.0763

     occupation numbers 
     1.0000   1.0000   1.0000   1.0000   0.0000   0.0000   0.0000   0.0000

          k = 0.6566-0.3536-0.0505 (   742 PWs)   bands (ev):

    -1.9191  -1.0170   2.0949   2.7629  10.0412  10.3750  11.3516  11.7720

     occupation numbers 
     1.0000   1.0000   1.0000   1.0000   0.0000   0.0000   0.0000   0.0000

          k =-0.0000 0.3030-0.7071 (   742 PWs)   bands (ev):

    -1.4626  -1.4626   2.3874   2.3874   9.9332   9.9332  11.7891  11.7891

     occupation numbers 
     1.0000   1.0000   1.0000   1.0000   0.0000   0.0000   0.0000   0.0000

     the Fermi energy is     6.6018 ev

     WARNING: integrated charge=     8.00261136, expected=     8.00000000

!    total energy              =     -22.83833364 Ry
     estimated scf accuracy    <          2.5E-11 Ry
     smearing contrib. (-TS)   =       0.00005630 Ry
     internal energy E=F+TS    =     -22.83838994 Ry

     The total energy is F=E-TS. E is the sum of the following terms:
     one-electron contribution =       5.16721973 Ry
     hartree contribution      =       1.10087333 Ry
     xc contribution           =     -12.31050872 Ry
     ewald contribution        =     -16.79597428 Ry

     convergence has been achieved in   9 iterations

     Forces acting on atoms (cartesian axes, Ry/au):

     atom    1 type  1   force =     0.00000000    0.00000000    0.00000000
     atom    2 type  1   force =     0.00000000    0.00000000    0.00000000
     The non-local contrib.  to forces
     atom    1 type  1   force =    -0.00000000    0.00000000   -0.00000000
     atom    2 type  1   force =     0.00000000   -0.00000000    0.00000000
     The ionic contribution  to forces
     atom    1 type  1   force =    -0.00000000   -0.00000000   -0.00000000
     atom    2 type  1   force =     0.00000000    0.00000000    0.00000000
     The local contribution  to forces
     atom    1 type  1   force =     0.00000000    0.00000000    0.00000000
     atom    2 type  1   force =    -0.00000000   -0.00000000    0.00000000
     The core correction contribution to forces
     atom    1 type  1   force =    -0.00000000   -0.00000000   -0.00000000
     atom    2 type  1   force =    -0.00000000    0.00000000   -0.00000000
     The Hubbard contrib.    to forces
     atom    1 type  1   force =     0.00000000    0.00000000    0.00000000
     atom    2 type  1   force =     0.00000000    0.00000000    0.00000000
     The SCF correction term to forces
     atom    1 type  1   force =     0.00000000    0.00000000    0.00000000
     atom    2 type  1   force =    -0.00000000    0.00000000    0.00000000

     Total force =     0.000000     Total SCF correction =     0.000000


     Computing stress (Cartesian axis) and pressure

          total   stress  (Ry/bohr**3)                   (kbar)     P=       20.51
   0.00013939   0.00000000  -0.00000000           20.51        0.00       -0.00
   0.00000000   0.00013939  -0.00000000            0.00       20.51       -0.00
  -0.00000000  -0.00000000   0.00013939           -0.00       -0.00       20.51

     kinetic stress (kbar)   2209.76     -0.00      0.00
                               -0.00   2209.76      0.00
                                0.00      0.00   2209.76

     local   stress (kbar)     54.83      0.00     -0.00
                                0.00     54.83     -0.00
                               -0.00     -0.00     54.83

     nonloc. stress (kbar)   1603.65      0.00      0.00
                                0.00   1603.65      0.00
                                0.00      0.00   1603.65

     hartree stress (kbar)    199.75      0.00      0.00
                                0.00    199.75      0.00
                                0.00      0.00    199.75

     exc-cor stress (kbar)   2945.06      0.00     -0.00
                                0.00   2945.06     -0.00
                               -0.00     -0.00   2945.06

     corecor stress (kbar)  -3945.03     -0.00      0.00
                               -0.00  -3945.03     -0.00
                                0.00     -0.00  -3945.03

     ewald   stress (kbar)  -3047.51      0.00      0.00
                                0.00  -3047.51     -0.00
                                0.00     -0.00  -3047.51

     hubbard stress (kbar)      0.00      0.00      0.00
                                0.00      0.00      0.00
                                0.00      0.00      0.00

     DFT-D   stress (kbar)      0.00      0.00      0.00
                                0.00      0.00      0.00
                                0.00      0.00      0.00

     XDM     stress (kbar)      0.00      0.00      0.00
                                0.00      0.00      0.00
                                0.00      0.00      0.00

     dft-nl  stress (kbar)      0.00      0.00      0.00
                                0.00      0.00      0.00
                                0.00      0.00      0.00

     TS-vdW  stress (kbar)      0.00      0.00      0.00
                                0.00      0.00      0.00
                                0.00      0.00      0.00

     MDB     stress (kbar)      0.00      0.00      0.00
                                0.00      0.00      0.00
                                0.00      0.00      0.00

     3D-RISM stress (kbar)      0.00      0.00      0.00
                                0.00      0.00      0.00
                                0.00      0.00      0.00


     Writing all to output data dir ./out/silicon.save/ :
     XML data file, charge density, pseudopotentials, collected wavefunctions

     init_run     :      0.11s CPU      0.12s WALL (       1 calls)
     electrons    :      2.33s CPU      2.43s WALL (       1 calls)
     forces       :      0.03s CPU      0.03s WALL (       1 calls)
     stress       :      0.11s CPU      0.11s WALL (       1 calls)

     Called by init_run:
     wfcinit      :      0.07s CPU      0.07s WALL (       1 calls)
     wfcinit:atom :      0.00s CPU      0.00s WALL (     104 calls)
     wfcinit:wfcr :      0.06s CPU      0.06s WALL (     104 calls)
     potinit      :      0.00s CPU      0.00s WALL (       1 calls)
     hinit0       :      0.03s CPU      0.03s WALL (       1 calls)

     Called by electrons:
     c_bands      :      1.90s CPU      1.98s WALL (      10 calls)
     sum_band     :      0.36s CPU      0.38s WALL (      10 calls)
     v_of_rho     :      0.02s CPU      0.02s WALL (      10 calls)
     v_h          :      0.00s CPU      0.00s WALL (      10 calls)
     v_xc         :      0.02s CPU      0.02s WALL (      12 calls)
     newd         :      0.05s CPU      0.05s WALL (      10 calls)
     mix_rho      :      0.00s CPU      0.00s WALL (      10 calls)

     Called by c_bands:
     init_us_2    :      0.05s CPU      0.05s WALL (    2392 calls)
     cegterg      :      1.77s CPU      1.84s WALL (    1040 calls)

     Called by sum_band:
     sum_band:wei :      0.01s CPU      0.01s WALL (      10 calls)
     sum_band:loo :      0.31s CPU      0.32s WALL (      10 calls)
     sum_band:buf :      0.00s CPU      0.00s WALL (    1040 calls)
     sum_band:ini :      0.02s CPU      0.02s WALL (    1040 calls)
     sum_band:cal :      0.03s CPU      0.03s WALL (    1040 calls)
     sum_band:bec :      0.00s CPU      0.00s WALL (    1040 calls)
     addusdens    :      0.04s CPU      0.04s WALL (      10 calls)
                                        0.00s GPU  (      10 calls)
     addusd:skk   :      0.00s CPU      0.00s WALL (      10 calls)
                                        0.00s GPU  (      10 calls)

     Called by *egterg:
     cdiaghg      :      0.16s CPU      0.16s WALL (    3672 calls)
     cegterg:over :      0.09s CPU      0.09s WALL (    2736 calls)
     cegterg:upda :      0.03s CPU      0.03s WALL (    2736 calls)
     cegterg:last :      0.03s CPU      0.03s WALL (    1958 calls)
     h_psi        :      1.41s CPU      1.47s WALL (    3880 calls)
     s_psi        :      0.05s CPU      0.05s WALL (    3880 calls)
     g_psi        :      0.00s CPU      0.00s WALL (    2736 calls)

     Called by h_psi:
     h_psi:calbec :      0.11s CPU      0.11s WALL (    3880 calls)
     vloc_psi     :      1.24s CPU      1.28s WALL (    3880 calls)
                                        0.00s GPU  (    3880 calls)
     add_vuspsi   :      0.06s CPU      0.06s WALL (    3880 calls)

     General routines
     calbec       :      0.19s CPU      0.19s WALL (    6688 calls)
     fft          :      0.01s CPU      0.01s WALL (     154 calls)
     ffts         :      0.00s CPU      0.00s WALL (      20 calls)
     fftw         :      1.30s CPU      1.34s WALL (   52192 calls)
     interpolate  :      0.00s CPU      0.00s WALL (      10 calls)

     Parallel routines

     PWSCF        :      2.65s CPU      2.80s WALL


   This run was terminated on:   6:14:15  27Apr2026            

=------------------------------------------------------------------------------=
   JOB DONE.
=------------------------------------------------------------------------------=
