
     Program PWSCF v.7.5 starts on 27Apr2026 at 13:35: 5 

     This program is part of the open-source Quantum ESPRESSO suite
     for quantum simulation of materials; please cite
         "P. Giannozzi et al., J. Phys.:Condens. Matter 21 395502 (2009);
         "P. Giannozzi et al., J. Phys.:Condens. Matter 29 465901 (2017);
         "P. Giannozzi et al., J. Chem. Phys. 152 154105 (2020);
          URL http://www.quantum-espresso.org", 
     in publications or presentations arising from this work. More details at
     http://www.quantum-espresso.org/quote

     Parallel version (MPI), running on     6 processors

     MPI processes distributed on     1 nodes
     0 MiB available memory on the printing compute node when the environment starts

     Waiting for input...
     Reading input from standard input

     Current dimensions of program PWSCF are:
     Max number of different atomic species (ntypx) = 10
     Max number of k-points (npk) =  40000
     Max angular momentum in pseudopotentials (lmaxx) =  4
     file O.pbe-n-kjpaw_psl.0.1.UPF: wavefunction(s)  2P renormalized

     R & G space division:  proc/nbgrp/npool/nimage =       6
     Subspace diagonalization in iterative solution of the eigenvalue problem:
     a serial algorithm will be used


     Parallelization info
     --------------------
     sticks:   dense  smooth     PW     G-vecs:    dense   smooth      PW
     Min        2272    1136    297               199746    70616    9508
     Max        2273    1137    300               199749    70619    9509
     Sum       13637    6817   1789              1198487   423701   57051

     Using Slab Decomposition



     bravais-lattice index     =            0
     lattice parameter (alat)  =      18.8973  a.u.
     unit-cell volume          =    6748.3345 (a.u.)^3
     number of atoms/cell      =            3
     number of atomic types    =            2
     number of electrons       =         8.00
     number of Kohn-Sham states=            8
     kinetic-energy cutoff     =      60.0000  Ry
     charge density cutoff     =     480.0000  Ry
     scf convergence threshold =      6.0E-10
     mixing beta               =       0.4000
     number of iterations used =            8  plain     mixing
     Exchange-correlation= SLA  PW   PBX  PBC
                           (   1   4   3   4   0   0   0)

     celldm(1)=  18.897261  celldm(2)=   0.000000  celldm(3)=   0.000000
     celldm(4)=   0.000000  celldm(5)=   0.000000  celldm(6)=   0.000000

     crystal axes: (cart. coord. in units of alat)
               a(1) = (   1.000000   0.000000   0.000000 )  
               a(2) = (   0.000000   1.000000   0.000000 )  
               a(3) = (   0.000000   0.000000   1.000000 )  

     reciprocal axes: (cart. coord. in units 2 pi/alat)
               b(1) = (  1.000000  0.000000  0.000000 )  
               b(2) = (  0.000000  1.000000  0.000000 )  
               b(3) = (  0.000000  0.000000  1.000000 )  


     PseudoPot. # 1 for H  read from file:
     ./pseudo/H.pbe-rrkjus_psl.1.0.0.UPF
     MD5 check sum: f52b6d4d1c606e5624b1dc7b2218f220
     Pseudo is Ultrasoft, Zval =  1.0
     Generated using "atomic" code by A. Dal Corso  v.5.1
     Using radial grid of  929 points,  2 beta functions with: 
                l(1) =   0
                l(2) =   0
     Q(r) pseudized with 0 coefficients 


     PseudoPot. # 2 for O  read from file:
     ./pseudo/O.pbe-n-kjpaw_psl.0.1.UPF
     MD5 check sum: 0234752ac141de4415c5fc33072bef88
     Pseudo is Projector augmented-wave + core cor, Zval =  6.0
     Generated using "atomic" code by A. Dal Corso  v.5.0.99 svn rev. 10869
     Shape of augmentation charge: BESSEL
     Using radial grid of 1095 points,  4 beta functions with: 
                l(1) =   0
                l(2) =   0
                l(3) =   1
                l(4) =   1
     Q(r) pseudized with 0 coefficients 


     atomic species   valence    mass     pseudopotential
     H                 1.00     1.00794     H ( 1.00)
     O                 6.00    15.99940     O ( 1.00)

     No symmetry found


                                    s                        frac. trans.

      isym =  1     identity                                     

 cryst.   s( 1) = (     1          0          0      )
                  (     0          1          0      )
                  (     0          0          1      )

 cart.    s( 1) = (  1.0000000  0.0000000  0.0000000 )
                  (  0.0000000  1.0000000  0.0000000 )
                  (  0.0000000  0.0000000  1.0000000 )


   Cartesian axes

     site n.     atom                  positions (alat units)
         1        O      tau(   1) = (   0.5908490   0.4991110   0.4956740  )
         2        H      tau(   2) = (   0.5629640   0.4274740   0.4366820  )
         3        H      tau(   3) = (   0.6876380   0.4955270   0.4927230  )

   Crystallographic axes

     site n.     atom                  positions (cryst. coord.)
         1        O      tau(   1) = (  0.5908490  0.4991110  0.4956740  )
         2        H      tau(   2) = (  0.5629640  0.4274740  0.4366820  )
         3        H      tau(   3) = (  0.6876380  0.4955270  0.4927230  )

     number of k points=    14  Marzari-Vanderbilt smearing, width (Ry)=  0.0200
                       cart. coord. in units 2pi/alat
        k(    1) = (   0.0000000   0.0000000   0.0000000), wk =   0.0740741
        k(    2) = (   0.0000000   0.0000000   0.3333333), wk =   0.1481481
        k(    3) = (   0.0000000   0.3333333   0.3333333), wk =   0.1481481
        k(    4) = (   0.3333333   0.3333333   0.3333333), wk =   0.1481481
        k(    5) = (   0.3333333   0.0000000   0.0000000), wk =   0.1481481
        k(    6) = (   0.0000000   0.3333333   0.0000000), wk =   0.1481481
        k(    7) = (   0.0000000  -0.3333333   0.3333333), wk =   0.1481481
        k(    8) = (   0.3333333   0.0000000  -0.3333333), wk =   0.1481481
        k(    9) = (  -0.3333333   0.0000000  -0.3333333), wk =   0.1481481
        k(   10) = (   0.3333333  -0.3333333   0.0000000), wk =   0.1481481
        k(   11) = (  -0.3333333  -0.3333333   0.0000000), wk =   0.1481481
        k(   12) = (  -0.3333333  -0.3333333   0.3333333), wk =   0.1481481
        k(   13) = (  -0.3333333   0.3333333  -0.3333333), wk =   0.1481481
        k(   14) = (   0.3333333  -0.3333333  -0.3333333), wk =   0.1481481

                       cryst. coord.
        k(    1) = (   0.0000000   0.0000000   0.0000000), wk =   0.0740741
        k(    2) = (   0.0000000   0.0000000   0.3333333), wk =   0.1481481
        k(    3) = (   0.0000000   0.3333333   0.3333333), wk =   0.1481481
        k(    4) = (   0.3333333   0.3333333   0.3333333), wk =   0.1481481
        k(    5) = (   0.3333333   0.0000000   0.0000000), wk =   0.1481481
        k(    6) = (   0.0000000   0.3333333   0.0000000), wk =   0.1481481
        k(    7) = (   0.0000000  -0.3333333   0.3333333), wk =   0.1481481
        k(    8) = (   0.3333333   0.0000000  -0.3333333), wk =   0.1481481
        k(    9) = (  -0.3333333   0.0000000  -0.3333333), wk =   0.1481481
        k(   10) = (   0.3333333  -0.3333333   0.0000000), wk =   0.1481481
        k(   11) = (  -0.3333333  -0.3333333   0.0000000), wk =   0.1481481
        k(   12) = (  -0.3333333  -0.3333333   0.3333333), wk =   0.1481481
        k(   13) = (  -0.3333333   0.3333333  -0.3333333), wk =   0.1481481
        k(   14) = (   0.3333333  -0.3333333  -0.3333333), wk =   0.1481481

     Dense  grid:  1198487 G-vectors     FFT dimensions: ( 135, 135, 135)

     Smooth grid:   423701 G-vectors     FFT dimensions: (  96,  96,  96)

     Dynamical RAM for                 wfc:       1.08 MB

     Dynamical RAM for     wfc (w. buffer):      16.16 MB

     Dynamical RAM for           str. fact:       6.10 MB

     Dynamical RAM for           local pot:       0.00 MB

     Dynamical RAM for          nlocal pot:       1.62 MB

     Dynamical RAM for                qrad:       1.00 MB

     Dynamical RAM for          rho,v,vnew:      18.74 MB

     Dynamical RAM for               rhoin:       6.25 MB

     Dynamical RAM for            rho*nmix:      48.77 MB

     Dynamical RAM for           G-vectors:      11.97 MB

     Dynamical RAM for          h,s,v(r/c):       0.01 MB

     Dynamical RAM for          <psi|beta>:       0.00 MB

     Dynamical RAM for                 psi:       2.16 MB

     Dynamical RAM for                hpsi:       2.16 MB

     Dynamical RAM for                spsi:       2.16 MB

     Dynamical RAM for      wfcinit/wfcrot:       2.16 MB

     Dynamical RAM for           addusdens:     137.16 MB

     Dynamical RAM for          addusforce:     144.78 MB

     Dynamical RAM for         addusstress:     152.40 MB

     Estimated static dynamical RAM per process >      86.97 MB

     Estimated max dynamical RAM per process >     288.13 MB

     Estimated total dynamical RAM >       1.69 GB

     Initial potential from superposition of free atoms

     starting charge       8.0000, renormalised to       8.0000

     negative rho (up, down):  2.883E-04 0.000E+00
     Starting wfcs are    6 randomized atomic wfcs +    2 random wfcs
     Checking if some PAW data can be deallocated... 
       PAW data deallocated on    4 nodes for type:  2

     total cpu time spent up to now is        1.0 secs

     Self-consistent Calculation

     iteration #  1     ecut=    60.00 Ry     beta= 0.40
     Davidson diagonalization with overlap

---- Real-time Memory Report at c_bands before calling an iterative solver
             0 MiB given to the printing process from OS
             0 MiB allocation reported by mallinfo(arena+hblkhd)
             0 MiB available memory on the node where the printing process lives
------------------
     ethr =  1.00E-02,  avg # of iterations =  7.6

     negative rho (up, down):  5.088E-04 0.000E+00

     total cpu time spent up to now is        3.4 secs

     total energy              =     -43.94396393 Ry
     estimated scf accuracy    <       0.45623038 Ry

     iteration #  2     ecut=    60.00 Ry     beta= 0.40
     Davidson diagonalization with overlap

---- Real-time Memory Report at c_bands before calling an iterative solver
             0 MiB given to the printing process from OS
             0 MiB allocation reported by mallinfo(arena+hblkhd)
             0 MiB available memory on the node where the printing process lives
------------------
     ethr =  5.70E-03,  avg # of iterations =  2.0

     negative rho (up, down):  5.297E-04 0.000E+00

     total cpu time spent up to now is        4.7 secs

     total energy              =     -44.04234158 Ry
     estimated scf accuracy    <       0.02894877 Ry

     iteration #  3     ecut=    60.00 Ry     beta= 0.40
     Davidson diagonalization with overlap

---- Real-time Memory Report at c_bands before calling an iterative solver
             0 MiB given to the printing process from OS
             0 MiB allocation reported by mallinfo(arena+hblkhd)
             0 MiB available memory on the node where the printing process lives
------------------
     ethr =  3.62E-04,  avg # of iterations =  4.8

     negative rho (up, down):  6.892E-04 0.000E+00

     total cpu time spent up to now is        6.5 secs

     total energy              =     -44.03960311 Ry
     estimated scf accuracy    <       0.01023518 Ry

     iteration #  4     ecut=    60.00 Ry     beta= 0.40
     Davidson diagonalization with overlap

---- Real-time Memory Report at c_bands before calling an iterative solver
             0 MiB given to the printing process from OS
             0 MiB allocation reported by mallinfo(arena+hblkhd)
             0 MiB available memory on the node where the printing process lives
------------------
     ethr =  1.28E-04,  avg # of iterations =  4.8

     negative rho (up, down):  6.878E-04 0.000E+00

     total cpu time spent up to now is        8.3 secs

     total energy              =     -44.04026508 Ry
     estimated scf accuracy    <       0.00173818 Ry

     iteration #  5     ecut=    60.00 Ry     beta= 0.40
     Davidson diagonalization with overlap

---- Real-time Memory Report at c_bands before calling an iterative solver
             0 MiB given to the printing process from OS
             0 MiB allocation reported by mallinfo(arena+hblkhd)
             0 MiB available memory on the node where the printing process lives
------------------
     ethr =  2.17E-05,  avg # of iterations =  7.1

     negative rho (up, down):  6.836E-04 0.000E+00

     total cpu time spent up to now is       10.4 secs

     total energy              =     -44.04042917 Ry
     estimated scf accuracy    <       0.00009722 Ry

     iteration #  6     ecut=    60.00 Ry     beta= 0.40
     Davidson diagonalization with overlap

---- Real-time Memory Report at c_bands before calling an iterative solver
             0 MiB given to the printing process from OS
             0 MiB allocation reported by mallinfo(arena+hblkhd)
             0 MiB available memory on the node where the printing process lives
------------------
     c_bands:  1 eigenvalues not converged
     c_bands:  1 eigenvalues not converged
     ethr =  1.22E-06,  avg # of iterations = 10.1

     negative rho (up, down):  6.844E-04 0.000E+00

     total cpu time spent up to now is       12.9 secs

     total energy              =     -44.04045848 Ry
     estimated scf accuracy    <       0.00000292 Ry

     iteration #  7     ecut=    60.00 Ry     beta= 0.40
     Davidson diagonalization with overlap

---- Real-time Memory Report at c_bands before calling an iterative solver
             0 MiB given to the printing process from OS
             0 MiB allocation reported by mallinfo(arena+hblkhd)
             0 MiB available memory on the node where the printing process lives
------------------
     c_bands:  1 eigenvalues not converged
     ethr =  3.65E-08,  avg # of iterations =  5.6

     negative rho (up, down):  6.894E-04 0.000E+00

     total cpu time spent up to now is       14.7 secs

     total energy              =     -44.04045371 Ry
     estimated scf accuracy    <       0.00002057 Ry

     iteration #  8     ecut=    60.00 Ry     beta= 0.40
     Davidson diagonalization with overlap

---- Real-time Memory Report at c_bands before calling an iterative solver
             0 MiB given to the printing process from OS
             0 MiB allocation reported by mallinfo(arena+hblkhd)
             0 MiB available memory on the node where the printing process lives
------------------
     ethr =  3.65E-08,  avg # of iterations =  3.1

     negative rho (up, down):  6.909E-04 0.000E+00

     total cpu time spent up to now is       16.3 secs

     total energy              =     -44.04045672 Ry
     estimated scf accuracy    <       0.00000018 Ry

     iteration #  9     ecut=    60.00 Ry     beta= 0.40
     Davidson diagonalization with overlap

---- Real-time Memory Report at c_bands before calling an iterative solver
             0 MiB given to the printing process from OS
             0 MiB allocation reported by mallinfo(arena+hblkhd)
             0 MiB available memory on the node where the printing process lives
------------------
     ethr =  2.23E-09,  avg # of iterations =  1.1

     negative rho (up, down):  6.921E-04 0.000E+00

     total cpu time spent up to now is       17.5 secs

     total energy              =     -44.04045672 Ry
     estimated scf accuracy    <       0.00000007 Ry

     iteration # 10     ecut=    60.00 Ry     beta= 0.40
     Davidson diagonalization with overlap

---- Real-time Memory Report at c_bands before calling an iterative solver
             0 MiB given to the printing process from OS
             0 MiB allocation reported by mallinfo(arena+hblkhd)
             0 MiB available memory on the node where the printing process lives
------------------
     ethr =  8.19E-10,  avg # of iterations =  1.9

     negative rho (up, down):  6.928E-04 0.000E+00

     total cpu time spent up to now is       18.8 secs

     total energy              =     -44.04045672 Ry
     estimated scf accuracy    <       0.00000001 Ry

     iteration # 11     ecut=    60.00 Ry     beta= 0.40
     Davidson diagonalization with overlap

---- Real-time Memory Report at c_bands before calling an iterative solver
             0 MiB given to the printing process from OS
             0 MiB allocation reported by mallinfo(arena+hblkhd)
             0 MiB available memory on the node where the printing process lives
------------------
     ethr =  1.76E-10,  avg # of iterations =  2.0

     negative rho (up, down):  6.932E-04 0.000E+00

     total cpu time spent up to now is       20.2 secs

     total energy              =     -44.04045673 Ry
     estimated scf accuracy    <          8.4E-10 Ry

     iteration # 12     ecut=    60.00 Ry     beta= 0.40
     Davidson diagonalization with overlap

---- Real-time Memory Report at c_bands before calling an iterative solver
             0 MiB given to the printing process from OS
             0 MiB allocation reported by mallinfo(arena+hblkhd)
             0 MiB available memory on the node where the printing process lives
------------------
     ethr =  1.05E-11,  avg # of iterations =  3.0

     negative rho (up, down):  6.938E-04 0.000E+00

     total cpu time spent up to now is       21.7 secs

     End of self-consistent calculation

          k = 0.0000 0.0000 0.0000 ( 52923 PWs)   bands (ev):

   -25.1858 -12.9610  -9.2120  -7.1077  -0.9506   0.4281   0.7307   1.0887

     occupation numbers 
     1.0000   1.0000   1.0000   1.0000   0.0000   0.0000   0.0000   0.0000

          k = 0.0000 0.0000 0.3333 ( 52914 PWs)   bands (ev):

   -25.1858 -12.9610  -9.2120  -7.1078  -0.8963   0.2131   0.8141   0.8966

     occupation numbers 
     1.0000   1.0000   1.0000   1.0000   0.0000   0.0000   0.0000   0.0000

          k = 0.0000 0.3333 0.3333 ( 52939 PWs)   bands (ev):

   -25.1858 -12.9610  -9.2121  -7.1078  -0.8485   0.2767   0.5307   0.8983

     occupation numbers 
     1.0000   1.0000   1.0000   1.0000   0.0000   0.0000   0.0000   0.0000

          k = 0.3333 0.3333 0.3333 ( 52995 PWs)   bands (ev):

   -25.1858 -12.9611  -9.2121  -7.1078  -0.7978   0.3036   0.6726   0.6859

     occupation numbers 
     1.0000   1.0000   1.0000   1.0000   0.0000   0.0000   0.0000   0.0000

          k = 0.3333 0.0000 0.0000 ( 52914 PWs)   bands (ev):

   -25.1858 -12.9610  -9.2120  -7.1077  -0.8867   0.1573   0.7863   1.0830

     occupation numbers 
     1.0000   1.0000   1.0000   1.0000   0.0000   0.0000   0.0000   0.0000

          k = 0.0000 0.3333 0.0000 ( 52914 PWs)   bands (ev):

   -25.1858 -12.9610  -9.2120  -7.1077  -0.8953   0.2082   0.8128   0.9129

     occupation numbers 
     1.0000   1.0000   1.0000   1.0000   0.0000   0.0000   0.0000   0.0000

          k = 0.0000-0.3333 0.3333 ( 52939 PWs)   bands (ev):

   -25.1858 -12.9610  -9.2121  -7.1078  -0.8491   0.3196   0.4561   0.9780

     occupation numbers 
     1.0000   1.0000   1.0000   1.0000   0.0000   0.0000   0.0000   0.0000

          k = 0.3333 0.0000-0.3333 ( 52939 PWs)   bands (ev):

   -25.1858 -12.9610  -9.2121  -7.1078  -0.8407   0.3002   0.4076   0.9612

     occupation numbers 
     1.0000   1.0000   1.0000   1.0000   0.0000   0.0000   0.0000   0.0000

          k =-0.3333 0.0000-0.3333 ( 52939 PWs)   bands (ev):

   -25.1858 -12.9610  -9.2120  -7.1078  -0.8398   0.2280   0.5232   0.9307

     occupation numbers 
     1.0000   1.0000   1.0000   1.0000   0.0000   0.0000   0.0000   0.0000

          k = 0.3333-0.3333 0.0000 ( 52939 PWs)   bands (ev):

   -25.1858 -12.9610  -9.2121  -7.1077  -0.8398   0.3067   0.3951   0.9613

     occupation numbers 
     1.0000   1.0000   1.0000   1.0000   0.0000   0.0000   0.0000   0.0000

          k =-0.3333-0.3333 0.0000 ( 52939 PWs)   bands (ev):

   -25.1858 -12.9610  -9.2121  -7.1077  -0.8386   0.2198   0.5333   0.9299

     occupation numbers 
     1.0000   1.0000   1.0000   1.0000   0.0000   0.0000   0.0000   0.0000

          k =-0.3333-0.3333 0.3333 ( 52995 PWs)   bands (ev):

   -25.1858 -12.9611  -9.2121  -7.1078  -0.7992   0.3639   0.5459   0.7071

     occupation numbers 
     1.0000   1.0000   1.0000   1.0000   0.0000   0.0000   0.0000   0.0000

          k =-0.3333 0.3333-0.3333 ( 52995 PWs)   bands (ev):

   -25.1858 -12.9610  -9.2121  -7.1078  -0.7993   0.3768   0.5294   0.7052

     occupation numbers 
     1.0000   1.0000   1.0000   1.0000   0.0000   0.0000   0.0000   0.0000

          k = 0.3333-0.3333-0.3333 ( 52995 PWs)   bands (ev):

   -25.1858 -12.9610  -9.2121  -7.1078  -0.7996   0.4467   0.4596   0.6827

     occupation numbers 
     1.0000   1.0000   1.0000   1.0000   0.0000   0.0000   0.0000   0.0000

     the Fermi energy is    -4.1193 ev

!    total energy              =     -44.04045673 Ry
     estimated scf accuracy    <          1.4E-10 Ry
     smearing contrib. (-TS)   =       0.00000000 Ry
     internal energy E=F+TS    =     -44.04045673 Ry

     The total energy is F=E-TS. E is the sum of the following terms:
     one-electron contribution =     -63.00080827 Ry
     hartree contribution      =      33.08445911 Ry
     xc contribution           =      -8.83573329 Ry
     ewald contribution        =       4.22073421 Ry
     one-center paw contrib.   =      -9.50910849 Ry
      -> PAW hartree energy AE =      28.41459854 Ry
      -> PAW hartree energy PS =     -28.28215547 Ry
      -> PAW xc energy AE      =     -17.02644867 Ry
      -> PAW xc energy PS      =       7.38489712 Ry
      -> total E_H with PAW    =      33.21690217 Ry
      -> total E_XC with PAW   =     -18.47728484 Ry

     convergence has been achieved in  12 iterations

     negative rho (up, down):  6.938E-04 0.000E+00

     Forces acting on atoms (cartesian axes, Ry/au):

     atom    1 type  2   force =    -0.00094053    0.00102198    0.00084393
     atom    2 type  1   force =    -0.00155572   -0.00164866   -0.00136283
     atom    3 type  1   force =     0.00249625    0.00062668    0.00051890
     The non-local contrib.  to forces
     atom    1 type  2   force =     1.41561045   -1.54556660   -1.27281526
     atom    2 type  1   force =     0.03514670    0.07984971    0.06575457
     atom    3 type  1   force =    -0.10923236    0.00103243    0.00084958
     The ionic contribution  to forces
     atom    1 type  2   force =    -2.53454545    2.76764411    2.27920149
     atom    2 type  1   force =    -1.21928081   -2.74133105   -2.25756089
     atom    3 type  1   force =     3.75382626   -0.02631306   -0.02164060
     The local contribution  to forces
     atom    1 type  2   force =     1.13204299   -1.23639249   -1.01817331
     atom    2 type  1   force =     1.18257792    2.65983606    2.19044627
     atom    3 type  1   force =    -3.64210156    0.02590884    0.02131119
     The core correction contribution to forces
     atom    1 type  2   force =    -0.01405794    0.01534806    0.01264027
     atom    2 type  1   force =     0.00000000    0.00000000    0.00000000
     atom    3 type  1   force =     0.00000000    0.00000000    0.00000000
     The Hubbard contrib.    to forces
     atom    1 type  2   force =     0.00000000    0.00000000    0.00000000
     atom    2 type  1   force =     0.00000000    0.00000000    0.00000000
     atom    3 type  1   force =     0.00000000    0.00000000    0.00000000
     The SCF correction term to forces
     atom    1 type  2   force =     0.00000875   -0.00001034   -0.00000863
     atom    2 type  1   force =    -0.00000020   -0.00000261   -0.00000216
     atom    3 type  1   force =     0.00000324   -0.00000075   -0.00000064

     Total force =     0.004066     Total SCF correction =     0.000017


     Computing stress (Cartesian axis) and pressure


     negative rho (up, down):  6.938E-04 0.000E+00
          total   stress  (Ry/bohr**3)                   (kbar)     P=       -0.02
   0.00000024   0.00000027   0.00000023            0.04        0.04        0.03
   0.00000027  -0.00000024   0.00000028            0.04       -0.04        0.04
   0.00000023   0.00000028  -0.00000031            0.03        0.04       -0.05

     kinetic stress (kbar)    255.27     -9.57     -7.88
                               -9.57    281.95    -21.74
                               -7.88    -21.74    290.45

     local   stress (kbar)   -589.64    -26.07    -21.47
                              -26.07   -518.59    -55.46
                              -21.47    -55.46   -496.47

     nonloc. stress (kbar)     47.32      0.03      0.03
                                0.03     48.42     -1.37
                                0.03     -1.37     48.95

     hartree stress (kbar)    251.89      5.17      4.26
                                5.17    237.02     11.78
                                4.26     11.78    232.29

     exc-cor stress (kbar)    -50.76      0.11      0.09
                                0.11    -51.10      0.28
                                0.09      0.28    -51.21

     corecor stress (kbar)     -9.23      0.02      0.01
                                0.02     -9.29      0.05
                                0.01      0.05     -9.31

     ewald   stress (kbar)     95.20     30.35     24.99
                               30.35     11.55     66.51
                               24.99     66.51    -14.75

     hubbard stress (kbar)      0.00      0.00      0.00
                                0.00      0.00      0.00
                                0.00      0.00      0.00

     DFT-D   stress (kbar)      0.00      0.00      0.00
                                0.00      0.00      0.00
                                0.00      0.00      0.00

     XDM     stress (kbar)      0.00      0.00      0.00
                                0.00      0.00      0.00
                                0.00      0.00      0.00

     dft-nl  stress (kbar)      0.00      0.00      0.00
                                0.00      0.00      0.00
                                0.00      0.00      0.00

     TS-vdW  stress (kbar)      0.00      0.00      0.00
                                0.00      0.00      0.00
                                0.00      0.00      0.00

     MDB     stress (kbar)      0.00      0.00      0.00
                                0.00      0.00      0.00
                                0.00      0.00      0.00

     3D-RISM stress (kbar)      0.00      0.00      0.00
                                0.00      0.00      0.00
                                0.00      0.00      0.00


     Writing all to output data dir ./out/h2o.save/ :
     XML data file, charge density, pseudopotentials, collected wavefunctions

     init_run     :      0.88s CPU      0.91s WALL (       1 calls)
     electrons    :     20.48s CPU     20.75s WALL (       1 calls)
     forces       :      0.36s CPU      0.36s WALL (       1 calls)
     stress       :      1.05s CPU      1.03s WALL (       1 calls)

     Called by init_run:
     wfcinit      :      0.34s CPU      0.35s WALL (       1 calls)
     wfcinit:atom :      0.01s CPU      0.01s WALL (      14 calls)
     wfcinit:wfcr :      0.32s CPU      0.32s WALL (      14 calls)
     potinit      :      0.17s CPU      0.17s WALL (       1 calls)
     hinit0       :      0.06s CPU      0.06s WALL (       1 calls)

     Called by electrons:
     c_bands      :     14.47s CPU     14.68s WALL (      12 calls)
     sum_band     :      3.04s CPU      3.06s WALL (      12 calls)
     v_of_rho     :      1.57s CPU      1.58s WALL (      13 calls)
     v_h          :      0.15s CPU      0.15s WALL (      13 calls)
     v_xc         :      1.64s CPU      1.65s WALL (      15 calls)
     newd         :      0.94s CPU      0.95s WALL (      13 calls)
     PAW_pot      :      0.14s CPU      0.14s WALL (      13 calls)
     mix_rho      :      0.32s CPU      0.33s WALL (      12 calls)

     Called by c_bands:
     init_us_2    :      0.28s CPU      0.28s WALL (     378 calls)
     cegterg      :     14.18s CPU     14.39s WALL (     168 calls)

     Called by sum_band:
     sum_band:wei :      0.00s CPU      0.00s WALL (      12 calls)
     sum_band:loo :      1.99s CPU      2.00s WALL (      12 calls)
     sum_band:buf :      0.02s CPU      0.02s WALL (     168 calls)
     sum_band:ini :      0.12s CPU      0.13s WALL (     168 calls)
     sum_band:cal :      0.20s CPU      0.20s WALL (     168 calls)
     sum_band:bec :      0.00s CPU      0.00s WALL (     168 calls)
     addusdens    :      0.84s CPU      0.85s WALL (      12 calls)
                                        0.00s GPU  (      12 calls)
     addusd:skk   :      0.01s CPU      0.01s WALL (      24 calls)
                                        0.00s GPU  (      24 calls)

     Called by *egterg:
     cdiaghg      :      0.06s CPU      0.06s WALL (     912 calls)
     cegterg:over :      1.45s CPU      1.46s WALL (     744 calls)
     cegterg:upda :      0.56s CPU      0.62s WALL (     744 calls)
     cegterg:last :      0.79s CPU      0.79s WALL (     423 calls)
     h_psi        :     10.53s CPU     10.64s WALL (     926 calls)
     s_psi        :      0.39s CPU      0.41s WALL (     926 calls)
     g_psi        :      0.03s CPU      0.03s WALL (     744 calls)

     Called by h_psi:
     h_psi:calbec :      0.79s CPU      0.80s WALL (     926 calls)
     vloc_psi     :      9.25s CPU      9.29s WALL (     926 calls)
                                        0.00s GPU  (     926 calls)
     add_vuspsi   :      0.45s CPU      0.50s WALL (     926 calls)

     General routines
     calbec       :      1.25s CPU      1.27s WALL (    1332 calls)
     fft          :      1.90s CPU      1.91s WALL (     192 calls)
     ffts         :      0.06s CPU      0.06s WALL (      25 calls)
     fftw         :      9.77s CPU      9.80s WALL (    9874 calls)
     interpolate  :      0.16s CPU      0.16s WALL (      13 calls)

     Parallel routines

     PAW routines
     PAW_pot      :      0.14s CPU      0.14s WALL (      13 calls)

     PWSCF        :     22.86s CPU     23.22s WALL


   This run was terminated on:  13:35:28  27Apr2026            

=------------------------------------------------------------------------------=
   JOB DONE.
=------------------------------------------------------------------------------=
