
     Program PWSCF v.7.5 starts on 27Apr2026 at  5:50:26 

     This program is part of the open-source Quantum ESPRESSO suite
     for quantum simulation of materials; please cite
         "P. Giannozzi et al., J. Phys.:Condens. Matter 21 395502 (2009);
         "P. Giannozzi et al., J. Phys.:Condens. Matter 29 465901 (2017);
         "P. Giannozzi et al., J. Chem. Phys. 152 154105 (2020);
          URL http://www.quantum-espresso.org", 
     in publications or presentations arising from this work. More details at
     http://www.quantum-espresso.org/quote

     Parallel version (MPI), running on     6 processors

     MPI processes distributed on     1 nodes
     0 MiB available memory on the printing compute node when the environment starts

     Waiting for input...
     Reading input from standard input

     Current dimensions of program PWSCF are:
     Max number of different atomic species (ntypx) = 10
     Max number of k-points (npk) =  40000
     Max angular momentum in pseudopotentials (lmaxx) =  4
     file C.pbe-n-kjpaw_psl.1.0.0.UPF: wavefunction(s)  2S 2P renormalized
     Message from routine setup:
     using ibrav=0 with symmetry is DISCOURAGED, use correct ibrav instead

     R & G space division:  proc/nbgrp/npool/nimage =       6
     Subspace diagonalization in iterative solution of the eigenvalue problem:
     a serial algorithm will be used


     Parallelization info
     --------------------
     sticks:   dense  smooth     PW     G-vecs:    dense   smooth      PW
     Min          36      30     10                 2717     1945     384
     Max          38      32     11                 2728     1952     398
     Sum         223     187     61                16341    11685    2337

     Using Slab Decomposition



     bravais-lattice index     =            0
     lattice parameter (alat)  =       4.6487  a.u.
     unit-cell volume          =     530.3988 (a.u.)^3
     number of atoms/cell      =            2
     number of atomic types    =            1
     number of electrons       =         8.00
     number of Kohn-Sham states=           16
     kinetic-energy cutoff     =      30.0000  Ry
     charge density cutoff     =     150.0000  Ry
     scf convergence threshold =      8.0E-08
     mixing beta               =       0.4000
     number of iterations used =            8  plain     mixing
     Exchange-correlation= SLA  PW   PBX  PBC
                           (   1   4   3   4   0   0   0)

     celldm(1)=   4.648726  celldm(2)=   0.000000  celldm(3)=   0.000000
     celldm(4)=   0.000000  celldm(5)=   0.000000  celldm(6)=   0.000000

     crystal axes: (cart. coord. in units of alat)
               a(1) = (   1.000000   0.000000   0.000000 )  
               a(2) = (  -0.500000   0.865854   0.000000 )  
               a(3) = (   0.000000   0.000000   6.097561 )  

     reciprocal axes: (cart. coord. in units 2 pi/alat)
               b(1) = (  1.000000  0.577465 -0.000000 )  
               b(2) = (  0.000000  1.154930  0.000000 )  
               b(3) = (  0.000000 -0.000000  0.164000 )  


     PseudoPot. # 1 for C  read from file:
     ./C.pbe-n-kjpaw_psl.1.0.0.UPF
     MD5 check sum: 5d2aebdfa2cae82b50a7e79e9516da0f
     Pseudo is Projector augmented-wave + core cor, Zval =  4.0
     Generated using "atomic" code by A. Dal Corso  v.5.1
     Shape of augmentation charge: PSQ
     Using radial grid of 1073 points,  4 beta functions with: 
                l(1) =   0
                l(2) =   0
                l(3) =   1
                l(4) =   1
     Q(r) pseudized with 0 coefficients 


     atomic species   valence    mass     pseudopotential
     C                 4.00    12.01070     C ( 1.00)

      8 Sym. Ops., with inversion, found ( 4 have fractional translation)


                                    s                        frac. trans.

      isym =  1     identity                                     

 cryst.   s( 1) = (     1          0          0      )
                  (     0          1          0      )
                  (     0          0          1      )

 cart.    s( 1) = (  1.0000000  0.0000000  0.0000000 )
                  (  0.0000000  1.0000000  0.0000000 )
                  (  0.0000000  0.0000000  1.0000000 )


      isym =  2     180 deg rotation - cart. axis [0,0,1]        

 cryst.   s( 2) = (    -1          0          0      )    f =( -0.3333333 )
                  (     0         -1          0      )       (  0.3333333 )
                  (     0          0          1      )       (  0.0000000 )

 cart.    s( 2) = ( -1.0000000  0.0000000  0.0000000 )    f =( -0.5000000 )
                  (  0.0000000 -1.0000000  0.0000000 )       (  0.2886179 )
                  (  0.0000000  0.0000000  1.0000000 )       (  0.0000000 )


      isym =  3     180 deg rotation - cart. axis [0,1,0]        

 cryst.   s( 3) = (    -1          0          0      )
                  (     1          1          0      )
                  (     0          0         -1      )

 cart.    s( 3) = ( -1.0000000  0.0000000  0.0000000 )
                  (  0.0000000  1.0000000  0.0000000 )
                  (  0.0000000  0.0000000 -1.0000000 )


      isym =  4     180 deg rotation - cart. axis [1,0,0]        

 cryst.   s( 4) = (     1          0          0      )    f =( -0.3333333 )
                  (    -1         -1          0      )       (  0.3333333 )
                  (     0          0         -1      )       (  0.0000000 )

 cart.    s( 4) = (  1.0000000  0.0000000  0.0000000 )    f =( -0.5000000 )
                  (  0.0000000 -1.0000000  0.0000000 )       (  0.2886179 )
                  (  0.0000000  0.0000000 -1.0000000 )       (  0.0000000 )


      isym =  5     inversion                                    

 cryst.   s( 5) = (    -1          0          0      )    f =( -0.3333333 )
                  (     0         -1          0      )       (  0.3333333 )
                  (     0          0         -1      )       (  0.0000000 )

 cart.    s( 5) = ( -1.0000000  0.0000000  0.0000000 )    f =( -0.5000000 )
                  (  0.0000000 -1.0000000  0.0000000 )       (  0.2886179 )
                  (  0.0000000  0.0000000 -1.0000000 )       (  0.0000000 )


      isym =  6     inv. 180 deg rotation - cart. axis [0,0,1]   

 cryst.   s( 6) = (     1          0          0      )
                  (     0          1          0      )
                  (     0          0         -1      )

 cart.    s( 6) = (  1.0000000  0.0000000  0.0000000 )
                  (  0.0000000  1.0000000  0.0000000 )
                  (  0.0000000  0.0000000 -1.0000000 )


      isym =  7     inv. 180 deg rotation - cart. axis [0,1,0]   

 cryst.   s( 7) = (     1          0          0      )    f =( -0.3333333 )
                  (    -1         -1          0      )       (  0.3333333 )
                  (     0          0          1      )       (  0.0000000 )

 cart.    s( 7) = (  1.0000000  0.0000000  0.0000000 )    f =( -0.5000000 )
                  (  0.0000000 -1.0000000  0.0000000 )       (  0.2886179 )
                  (  0.0000000  0.0000000  1.0000000 )       (  0.0000000 )


      isym =  8     inv. 180 deg rotation - cart. axis [1,0,0]   

 cryst.   s( 8) = (    -1          0          0      )
                  (     1          1          0      )
                  (     0          0          1      )

 cart.    s( 8) = ( -1.0000000  0.0000000  0.0000000 )
                  (  0.0000000  1.0000000  0.0000000 )
                  (  0.0000000  0.0000000  1.0000000 )


   Cartesian axes

     site n.     atom                  positions (alat units)
         1        C      tau(   1) = (   0.0000000   0.0000000   3.0487805  )
         2        C      tau(   2) = (   0.0000000   0.5772358   3.0487805  )

   Crystallographic axes

     site n.     atom                  positions (cryst. coord.)
         1        C      tau(   1) = (  0.0000000  0.0000000  0.5000000  )
         2        C      tau(   2) = (  0.3333333  0.6666667  0.5000000  )

     number of k points=    13  Marzari-Vanderbilt smearing, width (Ry)=  0.0100
                       cart. coord. in units 2pi/alat
        k(    1) = (   0.0000000   0.0000000   0.0000000), wk =   0.0555556
        k(    2) = (   0.0000000   0.1924883   0.0000000), wk =   0.1111111
        k(    3) = (   0.0000000   0.3849765   0.0000000), wk =   0.1111111
        k(    4) = (   0.0000000  -0.5774648   0.0000000), wk =   0.0555556
        k(    5) = (   0.1666667   0.0962441   0.0000000), wk =   0.2222222
        k(    6) = (   0.1666667   0.2887324   0.0000000), wk =   0.2222222
        k(    7) = (   0.1666667   0.4812207   0.0000000), wk =   0.2222222
        k(    8) = (   0.3333333   0.1924883   0.0000000), wk =   0.2222222
        k(    9) = (   0.3333333   0.3849765   0.0000000), wk =   0.2222222
        k(   10) = (   0.3333333   0.5774648   0.0000000), wk =   0.1111111
        k(   11) = (   0.3333333   0.0000000   0.0000000), wk =   0.1111111
        k(   12) = (  -0.5000000  -0.2887324   0.0000000), wk =   0.1111111
        k(   13) = (  -0.5000000  -0.0962441   0.0000000), wk =   0.2222222

                       cryst. coord.
        k(    1) = (   0.0000000   0.0000000   0.0000000), wk =   0.0555556
        k(    2) = (   0.0000000   0.1666667   0.0000000), wk =   0.1111111
        k(    3) = (   0.0000000   0.3333333   0.0000000), wk =   0.1111111
        k(    4) = (   0.0000000  -0.5000000   0.0000000), wk =   0.0555556
        k(    5) = (   0.1666667   0.0000000   0.0000000), wk =   0.2222222
        k(    6) = (   0.1666667   0.1666667   0.0000000), wk =   0.2222222
        k(    7) = (   0.1666667   0.3333333   0.0000000), wk =   0.2222222
        k(    8) = (   0.3333333   0.0000000   0.0000000), wk =   0.2222222
        k(    9) = (   0.3333333   0.1666667   0.0000000), wk =   0.2222222
        k(   10) = (   0.3333333   0.3333333   0.0000000), wk =   0.1111111
        k(   11) = (   0.3333333  -0.1666667   0.0000000), wk =   0.1111111
        k(   12) = (  -0.5000000   0.0000000   0.0000000), wk =   0.1111111
        k(   13) = (  -0.5000000   0.1666667   0.0000000), wk =   0.2222222

     Dense  grid:    16341 G-vectors     FFT dimensions: (  24,  24, 120)

     Smooth grid:    11685 G-vectors     FFT dimensions: (  18,  18, 100)

     Dynamical RAM for                 wfc:       0.06 MB

     Dynamical RAM for     wfc (w. buffer):       0.84 MB

     Dynamical RAM for           str. fact:       0.04 MB

     Dynamical RAM for           local pot:       0.00 MB

     Dynamical RAM for          nlocal pot:       0.06 MB

     Dynamical RAM for                qrad:       0.28 MB

     Dynamical RAM for          rho,v,vnew:       0.39 MB

     Dynamical RAM for               rhoin:       0.13 MB

     Dynamical RAM for            rho*nmix:       0.67 MB

     Dynamical RAM for           G-vectors:       0.17 MB

     Dynamical RAM for          h,s,v(r/c):       0.05 MB

     Dynamical RAM for          <psi|beta>:       0.00 MB

     Dynamical RAM for                 psi:       0.12 MB

     Dynamical RAM for                hpsi:       0.12 MB

     Dynamical RAM for                spsi:       0.12 MB

     Dynamical RAM for      wfcinit/wfcrot:       0.13 MB

     Dynamical RAM for           addusdens:       1.87 MB

     Dynamical RAM for          addusforce:       1.98 MB

     Dynamical RAM for         addusstress:       2.08 MB

     Estimated static dynamical RAM per process >       2.43 MB

     Estimated max dynamical RAM per process >       5.18 MB

     Estimated total dynamical RAM >      31.07 MB

     Check: negative core charge=   -0.000034

     Initial potential from superposition of free atoms

     starting charge       7.9999, renormalised to       8.0000

     negative rho (up, down):  1.221E-03 0.000E+00
     Starting wfcs are    8 randomized atomic wfcs +    8 random wfcs
     Checking if some PAW data can be deallocated... 

     total cpu time spent up to now is        0.1 secs

     Self-consistent Calculation

     iteration #  1     ecut=    30.00 Ry     beta= 0.40
     Davidson diagonalization with overlap

---- Real-time Memory Report at c_bands before calling an iterative solver
             0 MiB given to the printing process from OS
             0 MiB allocation reported by mallinfo(arena+hblkhd)
             0 MiB available memory on the node where the printing process lives
------------------
     ethr =  1.00E-02,  avg # of iterations =  7.5

     negative rho (up, down):  1.848E-03 0.000E+00

     total cpu time spent up to now is        0.3 secs

     total energy              =     -36.87222151 Ry
     estimated scf accuracy    <       0.20352913 Ry

     iteration #  2     ecut=    30.00 Ry     beta= 0.40
     Davidson diagonalization with overlap

---- Real-time Memory Report at c_bands before calling an iterative solver
             0 MiB given to the printing process from OS
             0 MiB allocation reported by mallinfo(arena+hblkhd)
             0 MiB available memory on the node where the printing process lives
------------------
     ethr =  2.54E-03,  avg # of iterations =  1.4

     negative rho (up, down):  2.447E-03 0.000E+00

     total cpu time spent up to now is        0.4 secs

     total energy              =     -36.86260835 Ry
     estimated scf accuracy    <       0.03712805 Ry

     iteration #  3     ecut=    30.00 Ry     beta= 0.40
     Davidson diagonalization with overlap

---- Real-time Memory Report at c_bands before calling an iterative solver
             0 MiB given to the printing process from OS
             0 MiB allocation reported by mallinfo(arena+hblkhd)
             0 MiB available memory on the node where the printing process lives
------------------
     ethr =  4.64E-04,  avg # of iterations =  3.4

     negative rho (up, down):  2.696E-03 0.000E+00

     total cpu time spent up to now is        0.5 secs

     total energy              =     -36.86815339 Ry
     estimated scf accuracy    <       0.00088522 Ry

     iteration #  4     ecut=    30.00 Ry     beta= 0.40
     Davidson diagonalization with overlap

---- Real-time Memory Report at c_bands before calling an iterative solver
             0 MiB given to the printing process from OS
             0 MiB allocation reported by mallinfo(arena+hblkhd)
             0 MiB available memory on the node where the printing process lives
------------------
     ethr =  1.11E-05,  avg # of iterations =  3.8

     negative rho (up, down):  2.746E-03 0.000E+00

     total cpu time spent up to now is        0.5 secs

     total energy              =     -36.86819264 Ry
     estimated scf accuracy    <       0.00009089 Ry

     iteration #  5     ecut=    30.00 Ry     beta= 0.40
     Davidson diagonalization with overlap

---- Real-time Memory Report at c_bands before calling an iterative solver
             0 MiB given to the printing process from OS
             0 MiB allocation reported by mallinfo(arena+hblkhd)
             0 MiB available memory on the node where the printing process lives
------------------
     ethr =  1.14E-06,  avg # of iterations =  2.3

     negative rho (up, down):  2.794E-03 0.000E+00

     total cpu time spent up to now is        0.6 secs

     total energy              =     -36.86820693 Ry
     estimated scf accuracy    <       0.00000110 Ry

     iteration #  6     ecut=    30.00 Ry     beta= 0.40
     Davidson diagonalization with overlap

---- Real-time Memory Report at c_bands before calling an iterative solver
             0 MiB given to the printing process from OS
             0 MiB allocation reported by mallinfo(arena+hblkhd)
             0 MiB available memory on the node where the printing process lives
------------------
     ethr =  1.38E-08,  avg # of iterations =  2.0

     negative rho (up, down):  2.829E-03 0.000E+00

     total cpu time spent up to now is        0.7 secs

     total energy              =     -36.86820802 Ry
     estimated scf accuracy    <       0.00000024 Ry

     iteration #  7     ecut=    30.00 Ry     beta= 0.40
     Davidson diagonalization with overlap

---- Real-time Memory Report at c_bands before calling an iterative solver
             0 MiB given to the printing process from OS
             0 MiB allocation reported by mallinfo(arena+hblkhd)
             0 MiB available memory on the node where the printing process lives
------------------
     ethr =  2.99E-09,  avg # of iterations =  1.1

     negative rho (up, down):  2.888E-03 0.000E+00

     total cpu time spent up to now is        0.8 secs

     End of self-consistent calculation

          k = 0.0000 0.0000 0.0000 (  1423 PWs)   bands (ev):

   -21.3074  -9.3616  -4.7126  -4.7114   1.2386   1.9968   2.2284   4.2407
     5.0261   6.7166   6.7207   8.1879   9.3377   9.8623  10.9593  13.5723

     occupation numbers 
     1.0000   1.0000   1.0000   1.0000   0.0000   0.0000   0.0000   0.0000
     0.0000   0.0000   0.0000   0.0000   0.0000   0.0000   0.0000   0.0000

          k = 0.0000 0.1925 0.0000 (  1443 PWs)   bands (ev):

   -20.6493  -8.5769  -7.0285  -5.8587   2.1439   2.9053   3.1356   5.1345
     5.9081   6.7369   7.7680   9.0617   9.2796  10.2356  12.2405  14.3618

     occupation numbers 
     1.0000   1.0000   1.0000   1.0000   0.0000   0.0000   0.0000   0.0000
     0.0000   0.0000   0.0000   0.0000   0.0000   0.0000   0.0000   0.0000

          k = 0.0000 0.3850 0.0000 (  1477 PWs)   bands (ev):

   -18.7093 -11.3674  -7.4940  -6.3427   3.2720   4.8483   5.6441   5.8282
     6.1191   7.8179   8.6251  11.5895  12.8676  14.1744  14.7063  15.4195

     occupation numbers 
     1.0000   1.0000   1.0000   1.0000   0.0000   0.0000   0.0000   0.0000
     0.0000   0.0000   0.0000   0.0000   0.0000   0.0000   0.0000   0.0000

          k = 0.0000-0.5775 0.0000 (  1476 PWs)   bands (ev):

   -16.0282 -15.0021  -8.1358  -4.0543   0.0070   5.7533   9.2577   9.3639
    10.0241  10.1719  10.3634  10.3870  11.8902  12.3503  12.9929  13.0456

     occupation numbers 
     1.0000   1.0000   1.0000   1.0000   0.0000   0.0000   0.0000   0.0000
     0.0000   0.0000   0.0000   0.0000   0.0000   0.0000   0.0000   0.0000

          k = 0.1667 0.0962 0.0000 (  1443 PWs)   bands (ev):

   -20.6495  -8.5772  -7.0303  -5.8568   2.1437   2.9050   3.1353   5.1342
     5.9078   6.7398   7.7675   9.0615   9.2812  10.2353  12.2375  14.3615

     occupation numbers 
     1.0000   1.0000   1.0000   1.0000   0.0000   0.0000   0.0000   0.0000
     0.0000   0.0000   0.0000   0.0000   0.0000   0.0000   0.0000   0.0000

          k = 0.1667 0.2887 0.0000 (  1472 PWs)   bands (ev):

   -19.3506  -9.4867  -8.1301  -7.0539   3.9519   4.7123   4.7567   4.9503
     6.8988   7.6890   8.4409   9.9608  10.6974  12.0063  14.9712  15.7882

     occupation numbers 
     1.0000   1.0000   1.0000   1.0000   0.0000   0.0000   0.0000   0.0000
     0.0000   0.0000   0.0000   0.0000   0.0000   0.0000   0.0000   0.0000

          k = 0.1667 0.4812 0.0000 (  1485 PWs)   bands (ev):

   -16.8516 -13.1502  -9.7802  -4.3526   0.8609   7.5292   8.2256   8.3925
     8.5949  10.0793  11.2606  12.0202  12.1769  13.7555  14.0086  14.9873

     occupation numbers 
     1.0000   1.0000   1.0000   1.0000   0.0000   0.0000   0.0000   0.0000
     0.0000   0.0000   0.0000   0.0000   0.0000   0.0000   0.0000   0.0000

          k = 0.3333 0.1925 0.0000 (  1477 PWs)   bands (ev):

   -18.7102 -11.3692  -7.4910  -6.3438   3.2710   4.8472   5.6431   5.8279
     6.1249   7.8170   8.6240  11.5887  12.8664  14.1709  14.7054  15.4187

     occupation numbers 
     1.0000   1.0000   1.0000   1.0000   0.0000   0.0000   0.0000   0.0000
     0.0000   0.0000   0.0000   0.0000   0.0000   0.0000   0.0000   0.0000

          k = 0.3333 0.3850 0.0000 (  1485 PWs)   bands (ev):

   -16.8523 -13.1523  -9.7774  -4.3537   0.8606   7.5285   8.2251   8.3992
     8.5952  10.0792  11.2597  12.0201  12.1712  13.7509  14.0054  14.9840

     occupation numbers 
     1.0000   1.0000   1.0000   1.0000   0.0000   0.0000   0.0000   0.0000
     0.0000   0.0000   0.0000   0.0000   0.0000   0.0000   0.0000   0.0000

          k = 0.3333 0.5775 0.0000 (  1464 PWs)   bands (ev):

   -14.3421 -14.3391 -12.3088  -1.6770  -1.6745   8.9157  11.2033  11.2076
    11.7172  12.8420  12.8449  12.8976  12.8998  12.9509  13.4864  14.2051

     occupation numbers 
     1.0000   1.0000   1.0000   0.5067   0.4933   0.0000   0.0000   0.0000
     0.0000   0.0000   0.0000   0.0000   0.0000   0.0000   0.0000   0.0000

          k = 0.3333 0.0000 0.0000 (  1472 PWs)   bands (ev):

   -19.3512  -9.4860  -8.1306  -7.0547   3.9511   4.7115   4.7569   4.9495
     6.8980   7.6881   8.4429   9.9686  10.6966  12.0055  14.9702  15.7820

     occupation numbers 
     1.0000   1.0000   1.0000   1.0000   0.0000   0.0000   0.0000   0.0000
     0.0000   0.0000   0.0000   0.0000   0.0000   0.0000   0.0000   0.0000

          k =-0.5000-0.2887 0.0000 (  1476 PWs)   bands (ev):

   -16.0309 -15.0021  -8.1325  -4.0569   0.0071   5.7608   9.2551   9.3617
    10.0224  10.1694  10.3608  10.3847  11.8890  12.3477  12.9902  13.0434

     occupation numbers 
     1.0000   1.0000   1.0000   1.0000   0.0000   0.0000   0.0000   0.0000
     0.0000   0.0000   0.0000   0.0000   0.0000   0.0000   0.0000   0.0000

          k =-0.5000-0.0962 0.0000 (  1485 PWs)   bands (ev):

   -16.8533 -13.1504  -9.7781  -4.3546   0.8615   7.5271   8.2238   8.3990
     8.5943  10.0780  11.2583  12.0197  12.1760  13.7536  14.0065  14.9855

     occupation numbers 
     1.0000   1.0000   1.0000   1.0000   0.0000   0.0000   0.0000   0.0000
     0.0000   0.0000   0.0000   0.0000   0.0000   0.0000   0.0000   0.0000

     the Fermi energy is    -1.6568 ev

!    total energy              =     -36.86820864 Ry
     total all-electron energy =      -152.396404 Ry
     estimated scf accuracy    <          1.5E-09 Ry
     smearing contrib. (-TS)   =      -0.00036458 Ry
     internal energy E=F+TS    =     -36.86784406 Ry

     The total energy is F=E-TS. E is the sum of the following terms:
     one-electron contribution =    -157.56130978 Ry
     hartree contribution      =      80.40662055 Ry
     xc contribution           =      -9.28213271 Ry
     ewald contribution        =      61.90460006 Ry
     one-center paw contrib.   =     -12.33562217 Ry
      -> PAW hartree energy AE =       9.44887897 Ry
      -> PAW hartree energy PS =      -9.44010937 Ry
      -> PAW xc energy AE      =     -10.66651421 Ry
      -> PAW xc energy PS      =       4.48993352 Ry
      -> total E_H with PAW    =      80.41539015 Ry
      -> total E_XC with PAW   =     -15.45871340 Ry

     convergence has been achieved in   7 iterations

     negative rho (up, down):  2.888E-03 0.000E+00

     Forces acting on atoms (cartesian axes, Ry/au):

     atom    1 type  1   force =     0.00000000    0.00024408    0.00000000
     atom    2 type  1   force =     0.00000000   -0.00024408    0.00000000
     The non-local contrib.  to forces
     atom    1 type  1   force =     0.00000000   -0.00025001    0.00000000
     atom    2 type  1   force =    -0.00000000    0.00025001    0.00000000
     The ionic contribution  to forces
     atom    1 type  1   force =    -0.00000000   -0.00170088    0.00000000
     atom    2 type  1   force =     0.00000000    0.00170088    0.00000000
     The local contribution  to forces
     atom    1 type  1   force =     0.00000000    0.00217725   -0.00000000
     atom    2 type  1   force =    -0.00000000   -0.00217725   -0.00000000
     The core correction contribution to forces
     atom    1 type  1   force =    -0.00000000    0.00001930   -0.00000000
     atom    2 type  1   force =     0.00000000   -0.00001930   -0.00000000
     The Hubbard contrib.    to forces
     atom    1 type  1   force =     0.00000000    0.00000000    0.00000000
     atom    2 type  1   force =     0.00000000    0.00000000    0.00000000
     The SCF correction term to forces
     atom    1 type  1   force =     0.00000000   -0.00000157   -0.00000000
     atom    2 type  1   force =     0.00000000    0.00000157   -0.00000000

     Total force =     0.000345     Total SCF correction =     0.000002


     Computing stress (Cartesian axis) and pressure


     negative rho (up, down):  2.888E-03 0.000E+00
          total   stress  (Ry/bohr**3)                   (kbar)     P=      -11.38
  -0.00004918   0.00000000   0.00000000           -7.24        0.00        0.00
   0.00000000  -0.00004917   0.00000000            0.00       -7.23        0.00
   0.00000000   0.00000000  -0.00013382            0.00        0.00      -19.69

     kinetic stress (kbar)   2586.17      0.00      0.00
                                0.00   2586.27      0.00
                                0.00      0.00   2930.84

     local   stress (kbar) -47315.13     -0.00     -0.00
                               -0.00 -47315.90     -0.00
                               -0.00     -0.00  47139.63

     nonloc. stress (kbar)    657.50      0.00      0.00
                                0.00    657.46      0.00
                                0.00      0.00    600.54

     hartree stress (kbar)  22071.47     -0.00      0.00
                               -0.00  22071.64      0.00
                                0.00      0.00 -21842.49

     exc-cor stress (kbar)    -47.36     -0.00     -0.00
                               -0.00    -47.36     -0.00
                               -0.00     -0.00    -76.88

     corecor stress (kbar)   -623.48     -0.00     -0.00
                               -0.00   -623.49     -0.00
                               -0.00     -0.00   -612.70

     ewald   stress (kbar)  22663.60      0.00      0.00
                                0.00  22664.14      0.00
                                0.00      0.00 -28158.62

     hubbard stress (kbar)      0.00      0.00      0.00
                                0.00      0.00      0.00
                                0.00      0.00      0.00

     DFT-D   stress (kbar)      0.00      0.00      0.00
                                0.00      0.00      0.00
                                0.00      0.00      0.00

     XDM     stress (kbar)      0.00      0.00      0.00
                                0.00      0.00      0.00
                                0.00      0.00      0.00

     dft-nl  stress (kbar)      0.00      0.00      0.00
                                0.00      0.00      0.00
                                0.00      0.00      0.00

     TS-vdW  stress (kbar)      0.00      0.00      0.00
                                0.00      0.00      0.00
                                0.00      0.00      0.00

     MDB     stress (kbar)      0.00      0.00      0.00
                                0.00      0.00      0.00
                                0.00      0.00      0.00

     3D-RISM stress (kbar)      0.00      0.00      0.00
                                0.00      0.00      0.00
                                0.00      0.00      0.00


     Writing all to output data dir ./out/graphene.save/ :
     XML data file, charge density, pseudopotentials, collected wavefunctions

     init_run     :      0.06s CPU      0.07s WALL (       1 calls)
     electrons    :      0.61s CPU      0.63s WALL (       1 calls)
     forces       :      0.01s CPU      0.01s WALL (       1 calls)
     stress       :      0.02s CPU      0.02s WALL (       1 calls)

     Called by init_run:
     wfcinit      :      0.02s CPU      0.03s WALL (       1 calls)
     wfcinit:atom :      0.00s CPU      0.00s WALL (      13 calls)
     wfcinit:wfcr :      0.02s CPU      0.03s WALL (      13 calls)
     potinit      :      0.01s CPU      0.01s WALL (       1 calls)
     hinit0       :      0.02s CPU      0.02s WALL (       1 calls)

     Called by electrons:
     c_bands      :      0.44s CPU      0.46s WALL (       7 calls)
     sum_band     :      0.07s CPU      0.07s WALL (       7 calls)
     v_of_rho     :      0.02s CPU      0.02s WALL (       8 calls)
     v_h          :      0.00s CPU      0.00s WALL (       8 calls)
     v_xc         :      0.02s CPU      0.02s WALL (      10 calls)
     newd         :      0.01s CPU      0.01s WALL (       8 calls)
     PAW_pot      :      0.07s CPU      0.08s WALL (       8 calls)
     mix_rho      :      0.00s CPU      0.00s WALL (       7 calls)

     Called by c_bands:
     init_us_2    :      0.00s CPU      0.00s WALL (     221 calls)
     cegterg      :      0.44s CPU      0.45s WALL (      91 calls)

     Called by sum_band:
     sum_band:wei :      0.00s CPU      0.00s WALL (       7 calls)
     sum_band:loo :      0.06s CPU      0.06s WALL (       7 calls)
     sum_band:buf :      0.00s CPU      0.00s WALL (      91 calls)
     sum_band:ini :      0.00s CPU      0.00s WALL (      91 calls)
     sum_band:cal :      0.00s CPU      0.00s WALL (      91 calls)
     sum_band:bec :      0.00s CPU      0.00s WALL (      91 calls)
     addusdens    :      0.00s CPU      0.00s WALL (       7 calls)
                                        0.00s GPU  (       7 calls)
     addusd:skk   :      0.00s CPU      0.00s WALL (       7 calls)
                                        0.00s GPU  (       7 calls)

     Called by *egterg:
     cdiaghg      :      0.06s CPU      0.07s WALL (     371 calls)
     cegterg:over :      0.03s CPU      0.03s WALL (     280 calls)
     cegterg:upda :      0.01s CPU      0.01s WALL (     280 calls)
     cegterg:last :      0.01s CPU      0.01s WALL (     203 calls)
     h_psi        :      0.32s CPU      0.33s WALL (     384 calls)
     s_psi        :      0.01s CPU      0.01s WALL (     384 calls)
     g_psi        :      0.00s CPU      0.00s WALL (     280 calls)

     Called by h_psi:
     h_psi:calbec :      0.01s CPU      0.01s WALL (     384 calls)
     vloc_psi     :      0.30s CPU      0.31s WALL (     384 calls)
                                        0.00s GPU  (     384 calls)
     add_vuspsi   :      0.01s CPU      0.01s WALL (     384 calls)

     General routines
     calbec       :      0.02s CPU      0.03s WALL (     696 calls)
     fft          :      0.01s CPU      0.02s WALL (     127 calls)
     ffts         :      0.00s CPU      0.00s WALL (      15 calls)
     fftw         :      0.32s CPU      0.33s WALL (    9540 calls)
     interpolate  :      0.00s CPU      0.00s WALL (       8 calls)

     Parallel routines

     PAW routines
     PAW_pot      :      0.07s CPU      0.08s WALL (       8 calls)
     PAW_symme    :      0.00s CPU      0.00s WALL (      15 calls)

     PWSCF        :      0.73s CPU      0.81s WALL


   This run was terminated on:   5:50:27  27Apr2026            

=------------------------------------------------------------------------------=
   JOB DONE.
=------------------------------------------------------------------------------=
