16   
1    

1    
 -0.0141421356237310   0.0000000000000000   0.0141421356237310
   0.0041766987    0.0000802088   -0.0041766987
  -0.0003205813    0.0000000887    0.0003205813
   0.0002285387    0.0001541388    0.0001669313
  -0.0001675513   -0.0001526213   -0.0002293987
  -0.0001669313    0.0001541388   -0.0002285387
   0.0002293987   -0.0001526213    0.0001675513
  -0.0000139113    0.0000006787    0.0000139113
  -0.0000632013   -0.0000001113    0.0000632013
  -0.0003020813   -0.0000067813    0.0002950213
   0.0000994787   -0.0000005813   -0.0000987487
  -0.0017538912    0.0014459988    0.0017538912
  -0.0018028912   -0.0015142013    0.0018028912
   0.0000267187   -0.0000730213   -0.0000267187
   0.0000264787    0.0000720487   -0.0000264787
  -0.0002950213   -0.0000067813    0.0003020813
   0.0000987487   -0.0000005813   -0.0000994787
