
     Program PWSCF v.7.5 starts on  7May2026 at 13:50:15 

     This program is part of the open-source Quantum ESPRESSO suite
     for quantum simulation of materials; please cite
         "P. Giannozzi et al., J. Phys.:Condens. Matter 21 395502 (2009);
         "P. Giannozzi et al., J. Phys.:Condens. Matter 29 465901 (2017);
         "P. Giannozzi et al., J. Chem. Phys. 152 154105 (2020);
          URL http://www.quantum-espresso.org", 
     in publications or presentations arising from this work. More details at
     http://www.quantum-espresso.org/quote

     Parallel version (MPI), running on     6 processors

     MPI processes distributed on     1 nodes
     0 MiB available memory on the printing compute node when the environment starts

     Reading input from silicon-001.in

     Current dimensions of program PWSCF are:
     Max number of different atomic species (ntypx) = 10
     Max number of k-points (npk) =  40000
     Max angular momentum in pseudopotentials (lmaxx) =  4
     Message from routine setup:
     using ibrav=0 with symmetry is DISCOURAGED, use correct ibrav instead

     R & G space division:  proc/nbgrp/npool/nimage =       6
     Subspace diagonalization in iterative solution of the eigenvalue problem:
     a serial algorithm will be used


     Parallelization info
     --------------------
     sticks:   dense  smooth     PW     G-vecs:    dense   smooth      PW
     Min         572     287     83                22185     7863    1231
     Max         574     288     84                22187     7866    1235
     Sum        3439    1723    499               133115    47183    7391

     Using Slab Decomposition



     bravais-lattice index     =            0
     lattice parameter (alat)  =      14.4250  a.u.
     unit-cell volume          =    2122.4160 (a.u.)^3
     number of atoms/cell      =           16
     number of atomic types    =            1
     number of electrons       =        64.00
     number of Kohn-Sham states=           38
     kinetic-energy cutoff     =      30.0000  Ry
     charge density cutoff     =     240.0000  Ry
     scf convergence threshold =      4.0E-10
     mixing beta               =       0.4000
     number of iterations used =            8  plain     mixing
     Exchange-correlation= PBE
                           (   1   4   3   4   0   0   0)

     celldm(1)=  14.424978  celldm(2)=   0.000000  celldm(3)=   0.000000
     celldm(4)=   0.000000  celldm(5)=   0.000000  celldm(6)=   0.000000

     crystal axes: (cart. coord. in units of alat)
               a(1) = (  -0.707107   0.000000   0.707107 )  
               a(2) = (   0.000000   0.707107   0.707107 )  
               a(3) = (  -0.707107   0.707107   0.000000 )  

     reciprocal axes: (cart. coord. in units 2 pi/alat)
               b(1) = ( -0.707107 -0.707107  0.707107 )  
               b(2) = (  0.707107  0.707107  0.707107 )  
               b(3) = ( -0.707107  0.707107 -0.707107 )  


     PseudoPot. # 1 for Si read from file:
     ./pseudo/Si.pbe-n-rrkjus_psl.1.0.0.UPF
     MD5 check sum: 0b0bb1205258b0d07b9f9672cf965d36
     Pseudo is Ultrasoft + core correction, Zval =  4.0
     Generated using "atomic" code by A. Dal Corso  v.5.1
     Using radial grid of 1141 points,  6 beta functions with: 
                l(1) =   0
                l(2) =   0
                l(3) =   1
                l(4) =   1
                l(5) =   2
                l(6) =   2
     Q(r) pseudized with 0 coefficients 


     atomic species   valence    mass     pseudopotential
     Si                4.00    28.08550     Si( 1.00)

      2 Sym. Ops. (no inversion) found


                                    s                        frac. trans.

      isym =  1     identity                                     

 cryst.   s( 1) = (     1          0          0      )
                  (     0          1          0      )
                  (     0          0          1      )

 cart.    s( 1) = (  1.0000000  0.0000000 -0.0000000 )
                  (  0.0000000  1.0000000  0.0000000 )
                  ( -0.0000000 -0.0000000  1.0000000 )


      isym =  2     inv. 180 deg rotation - cart. axis [1,0,1]   

 cryst.   s( 2) = (     1          0          0      )
                  (     0          0          1      )
                  (     0          1          0      )

 cart.    s( 2) = (  0.0000000  0.0000000 -1.0000000 )
                  ( -0.0000000  1.0000000 -0.0000000 )
                  ( -1.0000000 -0.0000000  0.0000000 )


   Cartesian axes

     site n.     atom                  positions (alat units)
         1        Si     tau(   1) = (  -0.0009804   0.0000000   0.0009804  )
         2        Si     tau(   2) = (  -0.3535534   0.0000000   0.3535534  )
         3        Si     tau(   3) = (   0.0000000   0.3535534   0.3535534  )
         4        Si     tau(   4) = (  -0.3535534   0.3535534   0.7071068  )
         5        Si     tau(   5) = (  -0.3535534   0.3535534   0.0000000  )
         6        Si     tau(   6) = (  -0.7071068   0.3535534   0.3535534  )
         7        Si     tau(   7) = (  -0.3535534   0.7071068   0.3535534  )
         8        Si     tau(   8) = (  -0.7071068   0.7071068   0.7071068  )
         9        Si     tau(   9) = (  -1.2374369   0.8838835   0.8838835  )
        10        Si     tau(  10) = (  -0.8838835   0.8838835   0.5303301  )
        11        Si     tau(  11) = (  -1.2374369   1.2374369   1.2374369  )
        12        Si     tau(  12) = (  -0.8838835   1.2374369   0.8838835  )
        13        Si     tau(  13) = (  -0.8838835   0.5303301   0.8838835  )
        14        Si     tau(  14) = (  -0.5303301   0.5303301   0.5303301  )
        15        Si     tau(  15) = (  -0.8838835   0.8838835   1.2374369  )
        16        Si     tau(  16) = (  -0.5303301   0.8838835   0.8838835  )

   Crystallographic axes

     site n.     atom                  positions (cryst. coord.)
         1        Si     tau(   1) = (  0.0013865  0.0000000 -0.0000000  )
         2        Si     tau(   2) = (  0.5000000 -0.0000000  0.0000000  )
         3        Si     tau(   3) = ( -0.0000000  0.5000000  0.0000000  )
         4        Si     tau(   4) = (  0.5000000  0.5000000  0.0000000  )
         5        Si     tau(   5) = ( -0.0000000  0.0000000  0.5000000  )
         6        Si     tau(   6) = (  0.5000000  0.0000000  0.5000000  )
         7        Si     tau(   7) = ( -0.0000000  0.5000000  0.5000000  )
         8        Si     tau(   8) = (  0.5000000  0.5000000  0.5000000  )
         9        Si     tau(   9) = (  0.8750000  0.3750000  0.8750000  )
        10        Si     tau(  10) = (  0.3750000  0.3750000  0.8750000  )
        11        Si     tau(  11) = (  0.8750000  0.8750000  0.8750000  )
        12        Si     tau(  12) = (  0.3750000  0.8750000  0.8750000  )
        13        Si     tau(  13) = (  0.8750000  0.3750000  0.3750000  )
        14        Si     tau(  14) = (  0.3750000  0.3750000  0.3750000  )
        15        Si     tau(  15) = (  0.8750000  0.8750000  0.3750000  )
        16        Si     tau(  16) = (  0.3750000  0.8750000  0.3750000  )

     number of k points=   372  Marzari-Vanderbilt smearing, width (Ry)=  0.0200
                       cart. coord. in units 2pi/alat
        k(    1) = (  -0.0505076   0.0505076   0.0505076), wk =   0.0029155
        k(    2) = (  -0.1515229   0.1515229  -0.0505076), wk =   0.0058309
        k(    3) = (  -0.2525381   0.2525381  -0.1515229), wk =   0.0058309
        k(    4) = (   0.3535534  -0.3535534   0.4545686), wk =   0.0058309
        k(    5) = (   0.2525381  -0.2525381   0.3535534), wk =   0.0058309
        k(    6) = (   0.1515229  -0.1515229   0.2525381), wk =   0.0058309
        k(    7) = (   0.0505076  -0.0505076   0.1515229), wk =   0.0058309
        k(    8) = (  -0.0505076   0.2525381   0.0505076), wk =   0.0029155
        k(    9) = (  -0.1515229   0.3535534  -0.0505076), wk =   0.0058309
        k(   10) = (   0.4545686  -0.2525381   0.5555839), wk =   0.0058309
        k(   11) = (   0.3535534  -0.1515229   0.4545686), wk =   0.0058309
        k(   12) = (   0.2525381  -0.0505076   0.3535534), wk =   0.0058309
        k(   13) = (   0.1515229   0.0505076   0.2525381), wk =   0.0058309
        k(   14) = (  -0.0505076   0.4545686   0.0505076), wk =   0.0029155
        k(   15) = (   0.5555839  -0.1515229   0.6565992), wk =   0.0058309
        k(   16) = (   0.4545686  -0.0505076   0.5555839), wk =   0.0058309
        k(   17) = (   0.3535534   0.0505076   0.4545686), wk =   0.0058309
        k(   18) = (   0.2525381   0.1515229   0.3535534), wk =   0.0058309
        k(   19) = (  -0.0505076  -0.7576144   0.0505076), wk =   0.0029155
        k(   20) = (  -0.1515229  -0.6565992  -0.0505076), wk =   0.0058309
        k(   21) = (  -0.2525381  -0.5555839  -0.1515229), wk =   0.0058309
        k(   22) = (  -0.3535534  -0.4545686  -0.2525381), wk =   0.0058309
        k(   23) = (  -0.0505076  -0.5555839   0.0505076), wk =   0.0029155
        k(   24) = (  -0.1515229  -0.4545686  -0.0505076), wk =   0.0058309
        k(   25) = (  -0.0505076  -0.3535534   0.0505076), wk =   0.0029155
        k(   26) = (  -0.1515229   0.1515229   0.1515229), wk =   0.0029155
        k(   27) = (  -0.2525381   0.2525381   0.0505076), wk =   0.0058309
        k(   28) = (   0.3535534  -0.3535534   0.6565992), wk =   0.0058309
        k(   29) = (   0.2525381  -0.2525381   0.5555839), wk =   0.0058309
        k(   30) = (   0.1515229  -0.1515229   0.4545686), wk =   0.0058309
        k(   31) = (  -0.1515229   0.3535534   0.1515229), wk =   0.0029155
        k(   32) = (   0.4545686  -0.2525381   0.7576144), wk =   0.0058309
        k(   33) = (   0.3535534  -0.1515229   0.6565992), wk =   0.0058309
        k(   34) = (   0.2525381  -0.0505076   0.5555839), wk =   0.0058309
        k(   35) = (  -0.1515229  -0.8586297   0.1515229), wk =   0.0029155
        k(   36) = (  -0.2525381  -0.7576144   0.0505076), wk =   0.0058309
        k(   37) = (  -0.3535534  -0.6565992  -0.0505076), wk =   0.0058309
        k(   38) = (  -0.1515229  -0.6565992   0.1515229), wk =   0.0029155
        k(   39) = (  -0.2525381   0.2525381   0.2525381), wk =   0.0029155
        k(   40) = (   0.3535534  -0.3535534   0.8586297), wk =   0.0058309
        k(   41) = (   0.2525381  -0.2525381   0.7576144), wk =   0.0058309
        k(   42) = (  -0.2525381  -0.9596449   0.2525381), wk =   0.0029155
        k(   43) = (  -0.3535534  -0.8586297   0.1515229), wk =   0.0058309
        k(   44) = (   0.3535534  -0.3535534  -0.3535534), wk =   0.0014577
        k(   45) = (   0.0505076   0.0505076  -0.0505076), wk =   0.0029155
        k(   46) = (  -0.0505076  -0.0505076  -0.0505076), wk =   0.0058309
        k(   47) = (   0.1515229   0.1515229   0.0505076), wk =   0.0058309
        k(   48) = (  -0.1515229  -0.1515229   0.0505076), wk =   0.0058309
        k(   49) = (  -0.1515229   0.1515229   0.0505076), wk =   0.0058309
        k(   50) = (   0.1515229  -0.0505076   0.1515229), wk =   0.0058309
        k(   51) = (   0.1515229   0.0505076  -0.1515229), wk =   0.0029155
        k(   52) = (  -0.1515229   0.0505076   0.1515229), wk =   0.0029155
        k(   53) = (   0.2525381   0.2525381   0.1515229), wk =   0.0058309
        k(   54) = (  -0.2525381  -0.2525381   0.1515229), wk =   0.0058309
        k(   55) = (  -0.2525381   0.2525381   0.1515229), wk =   0.0058309
        k(   56) = (   0.2525381  -0.1515229   0.2525381), wk =   0.0058309
        k(   57) = (   0.2525381   0.1515229  -0.2525381), wk =   0.0029155
        k(   58) = (  -0.2525381   0.1515229   0.2525381), wk =   0.0029155
        k(   59) = (  -0.3535534  -0.3535534  -0.4545686), wk =   0.0058309
        k(   60) = (   0.3535534   0.3535534  -0.4545686), wk =   0.0058309
        k(   61) = (   0.3535534  -0.3535534  -0.4545686), wk =   0.0058309
        k(   62) = (  -0.3535534   0.4545686  -0.3535534), wk =   0.0058309
        k(   63) = (  -0.3535534  -0.4545686   0.3535534), wk =   0.0029155
        k(   64) = (   0.3535534  -0.4545686  -0.3535534), wk =   0.0029155
        k(   65) = (  -0.2525381  -0.2525381  -0.3535534), wk =   0.0058309
        k(   66) = (   0.2525381   0.2525381  -0.3535534), wk =   0.0058309
        k(   67) = (   0.2525381  -0.2525381  -0.3535534), wk =   0.0058309
        k(   68) = (  -0.2525381   0.3535534  -0.2525381), wk =   0.0058309
        k(   69) = (  -0.2525381  -0.3535534   0.2525381), wk =   0.0029155
        k(   70) = (   0.2525381  -0.3535534  -0.2525381), wk =   0.0029155
        k(   71) = (  -0.1515229  -0.1515229  -0.2525381), wk =   0.0058309
        k(   72) = (   0.1515229   0.1515229  -0.2525381), wk =   0.0058309
        k(   73) = (   0.1515229  -0.1515229  -0.2525381), wk =   0.0058309
        k(   74) = (  -0.1515229   0.2525381  -0.1515229), wk =   0.0058309
        k(   75) = (  -0.1515229  -0.2525381   0.1515229), wk =   0.0029155
        k(   76) = (   0.1515229  -0.2525381  -0.1515229), wk =   0.0029155
        k(   77) = (  -0.0505076  -0.0505076  -0.1515229), wk =   0.0058309
        k(   78) = (   0.0505076   0.0505076  -0.1515229), wk =   0.0058309
        k(   79) = (   0.0505076  -0.0505076  -0.1515229), wk =   0.0058309
        k(   80) = (  -0.0505076   0.1515229  -0.0505076), wk =   0.0058309
        k(   81) = (  -0.0505076  -0.1515229   0.0505076), wk =   0.0029155
        k(   82) = (   0.0505076  -0.1515229  -0.0505076), wk =   0.0029155
        k(   83) = (   0.0505076   0.2525381  -0.0505076), wk =   0.0029155
        k(   84) = (  -0.0505076  -0.2525381  -0.0505076), wk =   0.0058309
        k(   85) = (   0.2525381  -0.0505076  -0.0505076), wk =   0.0058309
        k(   86) = (  -0.2525381   0.0505076  -0.0505076), wk =   0.0058309
        k(   87) = (   0.2525381   0.0505076   0.0505076), wk =   0.0058309
        k(   88) = (  -0.2525381  -0.0505076   0.0505076), wk =   0.0058309
        k(   89) = (   0.1515229   0.3535534   0.0505076), wk =   0.0058309
        k(   90) = (  -0.1515229  -0.3535534   0.0505076), wk =   0.0058309
        k(   91) = (   0.3535534  -0.1515229   0.0505076), wk =   0.0058309
        k(   92) = (  -0.3535534   0.1515229   0.0505076), wk =   0.0058309
        k(   93) = (   0.3535534   0.1515229  -0.0505076), wk =   0.0058309
        k(   94) = (  -0.3535534  -0.1515229  -0.0505076), wk =   0.0058309
        k(   95) = (  -0.0505076   0.3535534   0.1515229), wk =   0.0058309
        k(   96) = (   0.1515229  -0.0505076   0.3535534), wk =   0.0058309
        k(   97) = (   0.1515229   0.0505076  -0.3535534), wk =   0.0058309
        k(   98) = (  -0.1515229  -0.0505076  -0.3535534), wk =   0.0058309
        k(   99) = (  -0.1515229   0.0505076   0.3535534), wk =   0.0058309
        k(  100) = (  -0.4545686  -0.2525381  -0.5555839), wk =   0.0058309
        k(  101) = (   0.4545686   0.2525381  -0.5555839), wk =   0.0058309
        k(  102) = (  -0.2525381   0.4545686  -0.5555839), wk =   0.0058309
        k(  103) = (   0.2525381  -0.4545686  -0.5555839), wk =   0.0058309
        k(  104) = (  -0.2525381  -0.4545686   0.5555839), wk =   0.0058309
        k(  105) = (   0.2525381   0.4545686   0.5555839), wk =   0.0058309
        k(  106) = (   0.5555839  -0.2525381  -0.4545686), wk =   0.0058309
        k(  107) = (  -0.4545686   0.5555839  -0.2525381), wk =   0.0058309
        k(  108) = (  -0.4545686  -0.5555839   0.2525381), wk =   0.0058309
        k(  109) = (   0.4545686   0.5555839   0.2525381), wk =   0.0058309
        k(  110) = (   0.4545686  -0.5555839  -0.2525381), wk =   0.0058309
        k(  111) = (  -0.3535534  -0.1515229  -0.4545686), wk =   0.0058309
        k(  112) = (   0.3535534   0.1515229  -0.4545686), wk =   0.0058309
        k(  113) = (  -0.1515229   0.3535534  -0.4545686), wk =   0.0058309
        k(  114) = (   0.1515229  -0.3535534  -0.4545686), wk =   0.0058309
        k(  115) = (  -0.1515229  -0.3535534   0.4545686), wk =   0.0058309
        k(  116) = (   0.1515229   0.3535534   0.4545686), wk =   0.0058309
        k(  117) = (   0.4545686  -0.1515229  -0.3535534), wk =   0.0058309
        k(  118) = (  -0.3535534   0.4545686  -0.1515229), wk =   0.0058309
        k(  119) = (  -0.3535534  -0.4545686   0.1515229), wk =   0.0058309
        k(  120) = (   0.3535534   0.4545686   0.1515229), wk =   0.0058309
        k(  121) = (   0.3535534  -0.4545686  -0.1515229), wk =   0.0058309
        k(  122) = (  -0.2525381  -0.0505076  -0.3535534), wk =   0.0058309
        k(  123) = (   0.2525381   0.0505076  -0.3535534), wk =   0.0058309
        k(  124) = (  -0.0505076   0.2525381  -0.3535534), wk =   0.0058309
        k(  125) = (   0.0505076  -0.2525381  -0.3535534), wk =   0.0058309
        k(  126) = (  -0.0505076  -0.2525381   0.3535534), wk =   0.0058309
        k(  127) = (   0.0505076   0.2525381   0.3535534), wk =   0.0058309
        k(  128) = (   0.3535534  -0.0505076  -0.2525381), wk =   0.0058309
        k(  129) = (  -0.2525381   0.3535534  -0.0505076), wk =   0.0058309
        k(  130) = (  -0.2525381  -0.3535534   0.0505076), wk =   0.0058309
        k(  131) = (   0.2525381   0.3535534   0.0505076), wk =   0.0058309
        k(  132) = (   0.2525381  -0.3535534  -0.0505076), wk =   0.0058309
        k(  133) = (  -0.1515229   0.0505076  -0.2525381), wk =   0.0058309
        k(  134) = (   0.1515229  -0.0505076  -0.2525381), wk =   0.0058309
        k(  135) = (   0.0505076   0.1515229  -0.2525381), wk =   0.0058309
        k(  136) = (  -0.0505076  -0.1515229  -0.2525381), wk =   0.0058309
        k(  137) = (   0.0505076  -0.1515229   0.2525381), wk =   0.0058309
        k(  138) = (  -0.0505076   0.1515229   0.2525381), wk =   0.0058309
        k(  139) = (   0.2525381   0.0505076  -0.1515229), wk =   0.0058309
        k(  140) = (  -0.1515229   0.2525381   0.0505076), wk =   0.0058309
        k(  141) = (  -0.1515229  -0.2525381  -0.0505076), wk =   0.0058309
        k(  142) = (   0.1515229   0.2525381  -0.0505076), wk =   0.0058309
        k(  143) = (   0.1515229  -0.2525381   0.0505076), wk =   0.0058309
        k(  144) = (   0.0505076   0.4545686  -0.0505076), wk =   0.0029155
        k(  145) = (  -0.0505076  -0.4545686  -0.0505076), wk =   0.0058309
        k(  146) = (   0.4545686  -0.0505076  -0.0505076), wk =   0.0058309
        k(  147) = (  -0.4545686   0.0505076  -0.0505076), wk =   0.0058309
        k(  148) = (   0.4545686   0.0505076   0.0505076), wk =   0.0058309
        k(  149) = (  -0.4545686  -0.0505076   0.0505076), wk =   0.0058309
        k(  150) = (  -0.5555839  -0.1515229  -0.6565992), wk =   0.0058309
        k(  151) = (   0.5555839   0.1515229  -0.6565992), wk =   0.0058309
        k(  152) = (  -0.1515229   0.5555839  -0.6565992), wk =   0.0058309
        k(  153) = (   0.1515229  -0.5555839  -0.6565992), wk =   0.0058309
        k(  154) = (  -0.1515229  -0.5555839   0.6565992), wk =   0.0058309
        k(  155) = (   0.1515229   0.5555839   0.6565992), wk =   0.0058309
        k(  156) = (   0.6565992  -0.1515229  -0.5555839), wk =   0.0058309
        k(  157) = (  -0.5555839   0.6565992  -0.1515229), wk =   0.0058309
        k(  158) = (  -0.5555839  -0.6565992   0.1515229), wk =   0.0058309
        k(  159) = (   0.5555839   0.6565992   0.1515229), wk =   0.0058309
        k(  160) = (   0.5555839  -0.6565992  -0.1515229), wk =   0.0058309
        k(  161) = (  -0.4545686  -0.0505076  -0.5555839), wk =   0.0058309
        k(  162) = (   0.4545686   0.0505076  -0.5555839), wk =   0.0058309
        k(  163) = (  -0.0505076   0.4545686  -0.5555839), wk =   0.0058309
        k(  164) = (   0.0505076  -0.4545686  -0.5555839), wk =   0.0058309
        k(  165) = (  -0.0505076  -0.4545686   0.5555839), wk =   0.0058309
        k(  166) = (   0.0505076   0.4545686   0.5555839), wk =   0.0058309
        k(  167) = (   0.5555839  -0.0505076  -0.4545686), wk =   0.0058309
        k(  168) = (  -0.4545686   0.5555839  -0.0505076), wk =   0.0058309
        k(  169) = (  -0.4545686  -0.5555839   0.0505076), wk =   0.0058309
        k(  170) = (   0.4545686   0.5555839   0.0505076), wk =   0.0058309
        k(  171) = (   0.4545686  -0.5555839  -0.0505076), wk =   0.0058309
        k(  172) = (  -0.3535534   0.0505076  -0.4545686), wk =   0.0058309
        k(  173) = (   0.3535534  -0.0505076  -0.4545686), wk =   0.0058309
        k(  174) = (   0.0505076   0.3535534  -0.4545686), wk =   0.0058309
        k(  175) = (  -0.0505076  -0.3535534  -0.4545686), wk =   0.0058309
        k(  176) = (   0.0505076  -0.3535534   0.4545686), wk =   0.0058309
        k(  177) = (  -0.0505076   0.3535534   0.4545686), wk =   0.0058309
        k(  178) = (   0.4545686   0.0505076  -0.3535534), wk =   0.0058309
        k(  179) = (  -0.3535534   0.4545686   0.0505076), wk =   0.0058309
        k(  180) = (  -0.3535534  -0.4545686  -0.0505076), wk =   0.0058309
        k(  181) = (   0.3535534   0.4545686  -0.0505076), wk =   0.0058309
        k(  182) = (   0.3535534  -0.4545686   0.0505076), wk =   0.0058309
        k(  183) = (  -0.2525381   0.1515229  -0.3535534), wk =   0.0058309
        k(  184) = (   0.2525381  -0.1515229  -0.3535534), wk =   0.0058309
        k(  185) = (   0.1515229   0.2525381  -0.3535534), wk =   0.0058309
        k(  186) = (  -0.1515229  -0.2525381  -0.3535534), wk =   0.0058309
        k(  187) = (   0.1515229  -0.2525381   0.3535534), wk =   0.0058309
        k(  188) = (  -0.1515229   0.2525381   0.3535534), wk =   0.0058309
        k(  189) = (   0.3535534   0.1515229  -0.2525381), wk =   0.0058309
        k(  190) = (  -0.2525381   0.3535534   0.1515229), wk =   0.0058309
        k(  191) = (  -0.2525381  -0.3535534  -0.1515229), wk =   0.0058309
        k(  192) = (   0.2525381   0.3535534  -0.1515229), wk =   0.0058309
        k(  193) = (   0.2525381  -0.3535534   0.1515229), wk =   0.0058309
        k(  194) = (   0.0505076  -0.7576144  -0.0505076), wk =   0.0029155
        k(  195) = (  -0.0505076   0.7576144  -0.0505076), wk =   0.0058309
        k(  196) = (  -0.7576144  -0.0505076  -0.0505076), wk =   0.0058309
        k(  197) = (   0.7576144   0.0505076  -0.0505076), wk =   0.0058309
        k(  198) = (  -0.7576144   0.0505076   0.0505076), wk =   0.0058309
        k(  199) = (   0.7576144  -0.0505076   0.0505076), wk =   0.0058309
        k(  200) = (   0.1515229  -0.6565992   0.0505076), wk =   0.0058309
        k(  201) = (  -0.1515229   0.6565992   0.0505076), wk =   0.0058309
        k(  202) = (  -0.6565992  -0.1515229   0.0505076), wk =   0.0058309
        k(  203) = (   0.6565992   0.1515229   0.0505076), wk =   0.0058309
        k(  204) = (  -0.6565992   0.1515229  -0.0505076), wk =   0.0058309
        k(  205) = (   0.6565992  -0.1515229  -0.0505076), wk =   0.0058309
        k(  206) = (  -0.0505076  -0.6565992   0.1515229), wk =   0.0058309
        k(  207) = (   0.1515229  -0.0505076  -0.6565992), wk =   0.0058309
        k(  208) = (   0.1515229   0.0505076   0.6565992), wk =   0.0058309
        k(  209) = (  -0.1515229  -0.0505076   0.6565992), wk =   0.0058309
        k(  210) = (  -0.1515229   0.0505076  -0.6565992), wk =   0.0058309
        k(  211) = (   0.2525381  -0.5555839   0.1515229), wk =   0.0058309
        k(  212) = (  -0.2525381   0.5555839   0.1515229), wk =   0.0058309
        k(  213) = (  -0.5555839  -0.2525381   0.1515229), wk =   0.0058309
        k(  214) = (   0.5555839   0.2525381   0.1515229), wk =   0.0058309
        k(  215) = (  -0.5555839   0.2525381  -0.1515229), wk =   0.0058309
        k(  216) = (   0.5555839  -0.2525381  -0.1515229), wk =   0.0058309
        k(  217) = (  -0.1515229  -0.5555839   0.2525381), wk =   0.0058309
        k(  218) = (   0.2525381  -0.1515229  -0.5555839), wk =   0.0058309
        k(  219) = (   0.2525381   0.1515229   0.5555839), wk =   0.0058309
        k(  220) = (  -0.2525381  -0.1515229   0.5555839), wk =   0.0058309
        k(  221) = (  -0.2525381   0.1515229  -0.5555839), wk =   0.0058309
        k(  222) = (   0.3535534  -0.4545686   0.2525381), wk =   0.0058309
        k(  223) = (  -0.3535534   0.4545686   0.2525381), wk =   0.0058309
        k(  224) = (  -0.4545686  -0.3535534   0.2525381), wk =   0.0029155
        k(  225) = (   0.4545686   0.3535534   0.2525381), wk =   0.0058309
        k(  226) = (   0.4545686  -0.3535534  -0.2525381), wk =   0.0029155
        k(  227) = (  -0.2525381  -0.4545686   0.3535534), wk =   0.0058309
        k(  228) = (   0.0505076  -0.5555839  -0.0505076), wk =   0.0029155
        k(  229) = (  -0.0505076   0.5555839  -0.0505076), wk =   0.0058309
        k(  230) = (  -0.5555839  -0.0505076  -0.0505076), wk =   0.0058309
        k(  231) = (   0.5555839   0.0505076  -0.0505076), wk =   0.0058309
        k(  232) = (  -0.5555839   0.0505076   0.0505076), wk =   0.0058309
        k(  233) = (   0.5555839  -0.0505076   0.0505076), wk =   0.0058309
        k(  234) = (   0.1515229  -0.4545686   0.0505076), wk =   0.0058309
        k(  235) = (  -0.1515229   0.4545686   0.0505076), wk =   0.0058309
        k(  236) = (  -0.4545686  -0.1515229   0.0505076), wk =   0.0058309
        k(  237) = (   0.4545686   0.1515229   0.0505076), wk =   0.0058309
        k(  238) = (  -0.4545686   0.1515229  -0.0505076), wk =   0.0058309
        k(  239) = (   0.4545686  -0.1515229  -0.0505076), wk =   0.0058309
        k(  240) = (  -0.0505076  -0.4545686   0.1515229), wk =   0.0058309
        k(  241) = (   0.1515229  -0.0505076  -0.4545686), wk =   0.0058309
        k(  242) = (   0.1515229   0.0505076   0.4545686), wk =   0.0058309
        k(  243) = (  -0.1515229  -0.0505076   0.4545686), wk =   0.0058309
        k(  244) = (  -0.1515229   0.0505076  -0.4545686), wk =   0.0058309
        k(  245) = (   0.0505076  -0.3535534  -0.0505076), wk =   0.0029155
        k(  246) = (  -0.0505076   0.3535534  -0.0505076), wk =   0.0058309
        k(  247) = (  -0.3535534  -0.0505076  -0.0505076), wk =   0.0058309
        k(  248) = (   0.3535534   0.0505076  -0.0505076), wk =   0.0058309
        k(  249) = (  -0.3535534   0.0505076   0.0505076), wk =   0.0058309
        k(  250) = (   0.3535534  -0.0505076   0.0505076), wk =   0.0058309
        k(  251) = (   0.1515229   0.1515229  -0.1515229), wk =   0.0029155
        k(  252) = (  -0.1515229  -0.1515229  -0.1515229), wk =   0.0058309
        k(  253) = (   0.2525381   0.2525381  -0.0505076), wk =   0.0058309
        k(  254) = (  -0.2525381  -0.2525381  -0.0505076), wk =   0.0058309
        k(  255) = (  -0.2525381   0.2525381  -0.0505076), wk =   0.0058309
        k(  256) = (   0.2525381   0.0505076   0.2525381), wk =   0.0058309
        k(  257) = (   0.2525381  -0.0505076  -0.2525381), wk =   0.0029155
        k(  258) = (  -0.2525381  -0.0505076   0.2525381), wk =   0.0029155
        k(  259) = (  -0.3535534  -0.3535534  -0.6565992), wk =   0.0058309
        k(  260) = (   0.3535534   0.3535534  -0.6565992), wk =   0.0058309
        k(  261) = (   0.3535534  -0.3535534  -0.6565992), wk =   0.0058309
        k(  262) = (  -0.3535534   0.6565992  -0.3535534), wk =   0.0058309
        k(  263) = (  -0.3535534  -0.6565992   0.3535534), wk =   0.0029155
        k(  264) = (   0.3535534  -0.6565992  -0.3535534), wk =   0.0029155
        k(  265) = (  -0.2525381  -0.2525381  -0.5555839), wk =   0.0058309
        k(  266) = (   0.2525381   0.2525381  -0.5555839), wk =   0.0058309
        k(  267) = (   0.2525381  -0.2525381  -0.5555839), wk =   0.0058309
        k(  268) = (  -0.2525381   0.5555839  -0.2525381), wk =   0.0058309
        k(  269) = (  -0.2525381  -0.5555839   0.2525381), wk =   0.0029155
        k(  270) = (   0.2525381  -0.5555839  -0.2525381), wk =   0.0029155
        k(  271) = (  -0.1515229  -0.1515229  -0.4545686), wk =   0.0058309
        k(  272) = (   0.1515229   0.1515229  -0.4545686), wk =   0.0058309
        k(  273) = (   0.1515229  -0.1515229  -0.4545686), wk =   0.0058309
        k(  274) = (  -0.1515229   0.4545686  -0.1515229), wk =   0.0058309
        k(  275) = (  -0.1515229  -0.4545686   0.1515229), wk =   0.0029155
        k(  276) = (   0.1515229  -0.4545686  -0.1515229), wk =   0.0029155
        k(  277) = (   0.1515229   0.3535534  -0.1515229), wk =   0.0029155
        k(  278) = (  -0.1515229  -0.3535534  -0.1515229), wk =   0.0058309
        k(  279) = (   0.3535534  -0.1515229  -0.1515229), wk =   0.0058309
        k(  280) = (  -0.3535534   0.1515229  -0.1515229), wk =   0.0058309
        k(  281) = (   0.3535534   0.1515229   0.1515229), wk =   0.0058309
        k(  282) = (  -0.3535534  -0.1515229   0.1515229), wk =   0.0058309
        k(  283) = (  -0.4545686  -0.2525381  -0.7576144), wk =   0.0058309
        k(  284) = (   0.4545686   0.2525381  -0.7576144), wk =   0.0058309
        k(  285) = (  -0.2525381   0.4545686  -0.7576144), wk =   0.0058309
        k(  286) = (   0.2525381  -0.4545686  -0.7576144), wk =   0.0058309
        k(  287) = (  -0.2525381  -0.4545686   0.7576144), wk =   0.0058309
        k(  288) = (   0.2525381   0.4545686   0.7576144), wk =   0.0058309
        k(  289) = (   0.7576144  -0.2525381  -0.4545686), wk =   0.0058309
        k(  290) = (  -0.4545686   0.7576144  -0.2525381), wk =   0.0058309
        k(  291) = (  -0.4545686  -0.7576144   0.2525381), wk =   0.0058309
        k(  292) = (   0.4545686   0.7576144   0.2525381), wk =   0.0058309
        k(  293) = (   0.4545686  -0.7576144  -0.2525381), wk =   0.0058309
        k(  294) = (  -0.3535534  -0.1515229  -0.6565992), wk =   0.0058309
        k(  295) = (   0.3535534   0.1515229  -0.6565992), wk =   0.0058309
        k(  296) = (  -0.1515229   0.3535534  -0.6565992), wk =   0.0058309
        k(  297) = (   0.1515229  -0.3535534  -0.6565992), wk =   0.0058309
        k(  298) = (  -0.1515229  -0.3535534   0.6565992), wk =   0.0058309
        k(  299) = (   0.1515229   0.3535534   0.6565992), wk =   0.0058309
        k(  300) = (   0.6565992  -0.1515229  -0.3535534), wk =   0.0058309
        k(  301) = (  -0.3535534   0.6565992  -0.1515229), wk =   0.0058309
        k(  302) = (  -0.3535534  -0.6565992   0.1515229), wk =   0.0058309
        k(  303) = (   0.3535534   0.6565992   0.1515229), wk =   0.0058309
        k(  304) = (   0.3535534  -0.6565992  -0.1515229), wk =   0.0058309
        k(  305) = (  -0.2525381  -0.0505076  -0.5555839), wk =   0.0058309
        k(  306) = (   0.2525381   0.0505076  -0.5555839), wk =   0.0058309
        k(  307) = (  -0.0505076   0.2525381  -0.5555839), wk =   0.0058309
        k(  308) = (   0.0505076  -0.2525381  -0.5555839), wk =   0.0058309
        k(  309) = (  -0.0505076  -0.2525381   0.5555839), wk =   0.0058309
        k(  310) = (   0.0505076   0.2525381   0.5555839), wk =   0.0058309
        k(  311) = (   0.5555839  -0.0505076  -0.2525381), wk =   0.0058309
        k(  312) = (  -0.2525381   0.5555839  -0.0505076), wk =   0.0058309
        k(  313) = (  -0.2525381  -0.5555839   0.0505076), wk =   0.0058309
        k(  314) = (   0.2525381   0.5555839   0.0505076), wk =   0.0058309
        k(  315) = (   0.2525381  -0.5555839  -0.0505076), wk =   0.0058309
        k(  316) = (   0.1515229  -0.8586297  -0.1515229), wk =   0.0029155
        k(  317) = (  -0.1515229   0.8586297  -0.1515229), wk =   0.0058309
        k(  318) = (  -0.8586297  -0.1515229  -0.1515229), wk =   0.0058309
        k(  319) = (   0.8586297   0.1515229  -0.1515229), wk =   0.0058309
        k(  320) = (  -0.8586297   0.1515229   0.1515229), wk =   0.0058309
        k(  321) = (   0.8586297  -0.1515229   0.1515229), wk =   0.0058309
        k(  322) = (   0.2525381  -0.7576144  -0.0505076), wk =   0.0058309
        k(  323) = (  -0.2525381   0.7576144  -0.0505076), wk =   0.0058309
        k(  324) = (  -0.7576144  -0.2525381  -0.0505076), wk =   0.0058309
        k(  325) = (   0.7576144   0.2525381  -0.0505076), wk =   0.0058309
        k(  326) = (  -0.7576144   0.2525381   0.0505076), wk =   0.0058309
        k(  327) = (   0.7576144  -0.2525381   0.0505076), wk =   0.0058309
        k(  328) = (   0.0505076  -0.7576144   0.2525381), wk =   0.0058309
        k(  329) = (   0.2525381   0.0505076  -0.7576144), wk =   0.0058309
        k(  330) = (   0.2525381  -0.0505076   0.7576144), wk =   0.0058309
        k(  331) = (  -0.2525381   0.0505076   0.7576144), wk =   0.0058309
        k(  332) = (  -0.2525381  -0.0505076  -0.7576144), wk =   0.0058309
        k(  333) = (   0.3535534  -0.6565992   0.0505076), wk =   0.0058309
        k(  334) = (  -0.3535534   0.6565992   0.0505076), wk =   0.0058309
        k(  335) = (  -0.6565992  -0.3535534   0.0505076), wk =   0.0029155
        k(  336) = (   0.6565992   0.3535534   0.0505076), wk =   0.0058309
        k(  337) = (   0.6565992  -0.3535534  -0.0505076), wk =   0.0029155
        k(  338) = (  -0.0505076  -0.6565992   0.3535534), wk =   0.0058309
        k(  339) = (   0.1515229  -0.6565992  -0.1515229), wk =   0.0029155
        k(  340) = (  -0.1515229   0.6565992  -0.1515229), wk =   0.0058309
        k(  341) = (  -0.6565992  -0.1515229  -0.1515229), wk =   0.0058309
        k(  342) = (   0.6565992   0.1515229  -0.1515229), wk =   0.0058309
        k(  343) = (  -0.6565992   0.1515229   0.1515229), wk =   0.0058309
        k(  344) = (   0.6565992  -0.1515229   0.1515229), wk =   0.0058309
        k(  345) = (   0.2525381   0.2525381  -0.2525381), wk =   0.0029155
        k(  346) = (  -0.2525381  -0.2525381  -0.2525381), wk =   0.0058309
        k(  347) = (  -0.3535534  -0.3535534  -0.8586297), wk =   0.0058309
        k(  348) = (   0.3535534   0.3535534  -0.8586297), wk =   0.0058309
        k(  349) = (   0.3535534  -0.3535534  -0.8586297), wk =   0.0058309
        k(  350) = (  -0.3535534   0.8586297  -0.3535534), wk =   0.0058309
        k(  351) = (  -0.3535534  -0.8586297   0.3535534), wk =   0.0029155
        k(  352) = (   0.3535534  -0.8586297  -0.3535534), wk =   0.0029155
        k(  353) = (  -0.2525381  -0.2525381  -0.7576144), wk =   0.0058309
        k(  354) = (   0.2525381   0.2525381  -0.7576144), wk =   0.0058309
        k(  355) = (   0.2525381  -0.2525381  -0.7576144), wk =   0.0058309
        k(  356) = (  -0.2525381   0.7576144  -0.2525381), wk =   0.0058309
        k(  357) = (  -0.2525381  -0.7576144   0.2525381), wk =   0.0029155
        k(  358) = (   0.2525381  -0.7576144  -0.2525381), wk =   0.0029155
        k(  359) = (   0.2525381  -0.9596449  -0.2525381), wk =   0.0029155
        k(  360) = (  -0.2525381   0.9596449  -0.2525381), wk =   0.0058309
        k(  361) = (  -0.9596449  -0.2525381  -0.2525381), wk =   0.0058309
        k(  362) = (   0.9596449   0.2525381  -0.2525381), wk =   0.0058309
        k(  363) = (  -0.9596449   0.2525381   0.2525381), wk =   0.0058309
        k(  364) = (   0.9596449  -0.2525381   0.2525381), wk =   0.0058309
        k(  365) = (   0.3535534  -0.8586297  -0.1515229), wk =   0.0058309
        k(  366) = (  -0.3535534   0.8586297  -0.1515229), wk =   0.0058309
        k(  367) = (  -0.8586297  -0.3535534  -0.1515229), wk =   0.0029155
        k(  368) = (   0.8586297   0.3535534  -0.1515229), wk =   0.0058309
        k(  369) = (   0.8586297  -0.3535534   0.1515229), wk =   0.0029155
        k(  370) = (   0.1515229  -0.8586297   0.3535534), wk =   0.0058309
        k(  371) = (  -0.3535534  -0.3535534   0.3535534), wk =   0.0014577
        k(  372) = (   0.3535534   0.3535534   0.3535534), wk =   0.0029155

                       cryst. coord.
        k(    1) = (   0.0714286   0.0714286   0.0714286), wk =   0.0029155
        k(    2) = (   0.0714286   0.0714286   0.2142857), wk =   0.0058309
        k(    3) = (   0.0714286   0.0714286   0.3571429), wk =   0.0058309
        k(    4) = (   0.0714286   0.0714286  -0.5000000), wk =   0.0058309
        k(    5) = (   0.0714286   0.0714286  -0.3571429), wk =   0.0058309
        k(    6) = (   0.0714286   0.0714286  -0.2142857), wk =   0.0058309
        k(    7) = (   0.0714286   0.0714286  -0.0714286), wk =   0.0058309
        k(    8) = (   0.0714286   0.2142857   0.2142857), wk =   0.0029155
        k(    9) = (   0.0714286   0.2142857   0.3571429), wk =   0.0058309
        k(   10) = (   0.0714286   0.2142857  -0.5000000), wk =   0.0058309
        k(   11) = (   0.0714286   0.2142857  -0.3571429), wk =   0.0058309
        k(   12) = (   0.0714286   0.2142857  -0.2142857), wk =   0.0058309
        k(   13) = (   0.0714286   0.2142857  -0.0714286), wk =   0.0058309
        k(   14) = (   0.0714286   0.3571429   0.3571429), wk =   0.0029155
        k(   15) = (   0.0714286   0.3571429  -0.5000000), wk =   0.0058309
        k(   16) = (   0.0714286   0.3571429  -0.3571429), wk =   0.0058309
        k(   17) = (   0.0714286   0.3571429  -0.2142857), wk =   0.0058309
        k(   18) = (   0.0714286   0.3571429  -0.0714286), wk =   0.0058309
        k(   19) = (   0.0714286  -0.5000000  -0.5000000), wk =   0.0029155
        k(   20) = (   0.0714286  -0.5000000  -0.3571429), wk =   0.0058309
        k(   21) = (   0.0714286  -0.5000000  -0.2142857), wk =   0.0058309
        k(   22) = (   0.0714286  -0.5000000  -0.0714286), wk =   0.0058309
        k(   23) = (   0.0714286  -0.3571429  -0.3571429), wk =   0.0029155
        k(   24) = (   0.0714286  -0.3571429  -0.2142857), wk =   0.0058309
        k(   25) = (   0.0714286  -0.2142857  -0.2142857), wk =   0.0029155
        k(   26) = (   0.2142857   0.2142857   0.2142857), wk =   0.0029155
        k(   27) = (   0.2142857   0.2142857   0.3571429), wk =   0.0058309
        k(   28) = (   0.2142857   0.2142857  -0.5000000), wk =   0.0058309
        k(   29) = (   0.2142857   0.2142857  -0.3571429), wk =   0.0058309
        k(   30) = (   0.2142857   0.2142857  -0.2142857), wk =   0.0058309
        k(   31) = (   0.2142857   0.3571429   0.3571429), wk =   0.0029155
        k(   32) = (   0.2142857   0.3571429  -0.5000000), wk =   0.0058309
        k(   33) = (   0.2142857   0.3571429  -0.3571429), wk =   0.0058309
        k(   34) = (   0.2142857   0.3571429  -0.2142857), wk =   0.0058309
        k(   35) = (   0.2142857  -0.5000000  -0.5000000), wk =   0.0029155
        k(   36) = (   0.2142857  -0.5000000  -0.3571429), wk =   0.0058309
        k(   37) = (   0.2142857  -0.5000000  -0.2142857), wk =   0.0058309
        k(   38) = (   0.2142857  -0.3571429  -0.3571429), wk =   0.0029155
        k(   39) = (   0.3571429   0.3571429   0.3571429), wk =   0.0029155
        k(   40) = (   0.3571429   0.3571429  -0.5000000), wk =   0.0058309
        k(   41) = (   0.3571429   0.3571429  -0.3571429), wk =   0.0058309
        k(   42) = (   0.3571429  -0.5000000  -0.5000000), wk =   0.0029155
        k(   43) = (   0.3571429  -0.5000000  -0.3571429), wk =   0.0058309
        k(   44) = (  -0.5000000  -0.5000000  -0.5000000), wk =   0.0014577
        k(   45) = (  -0.0714286   0.0000000   0.0000000), wk =   0.0029155
        k(   46) = (   0.0000000  -0.0714286  -0.0000000), wk =   0.0058309
        k(   47) = (  -0.0714286   0.1428571  -0.0000000), wk =   0.0058309
        k(   48) = (   0.1428571  -0.0714286   0.0000000), wk =   0.0058309
        k(   49) = (   0.1428571   0.1428571   0.2142857), wk =   0.0058309
        k(   50) = (   0.0000000   0.0714286  -0.1428571), wk =   0.0058309
        k(   51) = (  -0.2142857  -0.0714286  -0.0714286), wk =   0.0029155
        k(   52) = (   0.2142857   0.1428571   0.1428571), wk =   0.0029155
        k(   53) = (  -0.0714286   0.2857143   0.0000000), wk =   0.0058309
        k(   54) = (   0.2857143  -0.0714286  -0.0000000), wk =   0.0058309
        k(   55) = (   0.2857143   0.2857143   0.3571429), wk =   0.0058309
        k(   56) = (  -0.0000000   0.0714286  -0.2857143), wk =   0.0058309
        k(   57) = (  -0.3571429  -0.0714286  -0.0714286), wk =   0.0029155
        k(   58) = (   0.3571429   0.2857143   0.2857143), wk =   0.0029155
        k(   59) = (  -0.0714286  -0.5714286   0.0000000), wk =   0.0058309
        k(   60) = (  -0.5714286  -0.0714286  -0.0000000), wk =   0.0058309
        k(   61) = (  -0.5714286  -0.5714286  -0.5000000), wk =   0.0058309
        k(   62) = (  -0.0000000   0.0714286   0.5714286), wk =   0.0058309
        k(   63) = (   0.5000000  -0.0714286  -0.0714286), wk =   0.0029155
        k(   64) = (  -0.5000000  -0.5714286  -0.5714286), wk =   0.0029155
        k(   65) = (  -0.0714286  -0.4285714  -0.0000000), wk =   0.0058309
        k(   66) = (  -0.4285714  -0.0714286   0.0000000), wk =   0.0058309
        k(   67) = (  -0.4285714  -0.4285714  -0.3571429), wk =   0.0058309
        k(   68) = (   0.0000000   0.0714286   0.4285714), wk =   0.0058309
        k(   69) = (   0.3571429  -0.0714286  -0.0714286), wk =   0.0029155
        k(   70) = (  -0.3571429  -0.4285714  -0.4285714), wk =   0.0029155
        k(   71) = (  -0.0714286  -0.2857143   0.0000000), wk =   0.0058309
        k(   72) = (  -0.2857143  -0.0714286  -0.0000000), wk =   0.0058309
        k(   73) = (  -0.2857143  -0.2857143  -0.2142857), wk =   0.0058309
        k(   74) = (   0.0000000   0.0714286   0.2857143), wk =   0.0058309
        k(   75) = (   0.2142857  -0.0714286  -0.0714286), wk =   0.0029155
        k(   76) = (  -0.2142857  -0.2857143  -0.2857143), wk =   0.0029155
        k(   77) = (  -0.0714286  -0.1428571   0.0000000), wk =   0.0058309
        k(   78) = (  -0.1428571  -0.0714286  -0.0000000), wk =   0.0058309
        k(   79) = (  -0.1428571  -0.1428571  -0.0714286), wk =   0.0058309
        k(   80) = (  -0.0000000   0.0714286   0.1428571), wk =   0.0058309
        k(   81) = (   0.0714286  -0.0714286  -0.0714286), wk =   0.0029155
        k(   82) = (  -0.0714286  -0.1428571  -0.1428571), wk =   0.0029155
        k(   83) = (  -0.0714286   0.1428571   0.1428571), wk =   0.0029155
        k(   84) = (  -0.0000000  -0.2142857  -0.1428571), wk =   0.0058309
        k(   85) = (  -0.2142857  -0.0714286  -0.2142857), wk =   0.0058309
        k(   86) = (   0.1428571   0.0000000   0.2142857), wk =   0.0058309
        k(   87) = (  -0.1428571   0.0714286  -0.1428571), wk =   0.0058309
        k(   88) = (   0.2142857   0.0000000   0.1428571), wk =   0.0058309
        k(   89) = (  -0.0714286   0.2857143   0.1428571), wk =   0.0058309
        k(   90) = (   0.1428571  -0.2142857  -0.1428571), wk =   0.0058309
        k(   91) = (  -0.2142857  -0.0714286  -0.3571429), wk =   0.0058309
        k(   92) = (   0.2857143   0.1428571   0.3571429), wk =   0.0058309
        k(   93) = (  -0.2857143   0.0714286  -0.1428571), wk =   0.0058309
        k(   94) = (   0.2142857  -0.1428571   0.1428571), wk =   0.0058309
        k(   95) = (   0.1428571   0.3571429   0.2857143), wk =   0.0058309
        k(   96) = (   0.1428571   0.2142857  -0.1428571), wk =   0.0058309
        k(   97) = (  -0.3571429  -0.2142857  -0.0714286), wk =   0.0058309
        k(   98) = (  -0.1428571  -0.2857143   0.0714286), wk =   0.0058309
        k(   99) = (   0.3571429   0.2857143   0.1428571), wk =   0.0058309
        k(  100) = (  -0.0714286  -0.5714286   0.1428571), wk =   0.0058309
        k(  101) = (  -0.7142857  -0.2142857  -0.1428571), wk =   0.0058309
        k(  102) = (  -0.2142857  -0.0714286   0.5000000), wk =   0.0058309
        k(  103) = (  -0.5714286  -0.7142857  -0.5000000), wk =   0.0058309
        k(  104) = (   0.5714286   0.0714286  -0.1428571), wk =   0.0058309
        k(  105) = (   0.2142857   0.7142857   0.1428571), wk =   0.0058309
        k(  106) = (  -0.7142857  -0.5000000  -0.5714286), wk =   0.0058309
        k(  107) = (   0.1428571   0.2142857   0.7142857), wk =   0.0058309
        k(  108) = (   0.5000000  -0.2142857  -0.0714286), wk =   0.0058309
        k(  109) = (  -0.1428571   0.5714286   0.0714286), wk =   0.0058309
        k(  110) = (  -0.5000000  -0.5714286  -0.7142857), wk =   0.0058309
        k(  111) = (  -0.0714286  -0.4285714   0.1428571), wk =   0.0058309
        k(  112) = (  -0.5714286  -0.2142857  -0.1428571), wk =   0.0058309
        k(  113) = (  -0.2142857  -0.0714286   0.3571429), wk =   0.0058309
        k(  114) = (  -0.4285714  -0.5714286  -0.3571429), wk =   0.0058309
        k(  115) = (   0.4285714   0.0714286  -0.1428571), wk =   0.0058309
        k(  116) = (   0.2142857   0.5714286   0.1428571), wk =   0.0058309
        k(  117) = (  -0.5714286  -0.3571429  -0.4285714), wk =   0.0058309
        k(  118) = (   0.1428571   0.2142857   0.5714286), wk =   0.0058309
        k(  119) = (   0.3571429  -0.2142857  -0.0714286), wk =   0.0058309
        k(  120) = (  -0.1428571   0.4285714   0.0714286), wk =   0.0058309
        k(  121) = (  -0.3571429  -0.4285714  -0.5714286), wk =   0.0058309
        k(  122) = (  -0.0714286  -0.2857143   0.1428571), wk =   0.0058309
        k(  123) = (  -0.4285714  -0.2142857  -0.1428571), wk =   0.0058309
        k(  124) = (  -0.2142857  -0.0714286   0.2142857), wk =   0.0058309
        k(  125) = (  -0.2857143  -0.4285714  -0.2142857), wk =   0.0058309
        k(  126) = (   0.2857143   0.0714286  -0.1428571), wk =   0.0058309
        k(  127) = (   0.2142857   0.4285714   0.1428571), wk =   0.0058309
        k(  128) = (  -0.4285714  -0.2142857  -0.2857143), wk =   0.0058309
        k(  129) = (   0.1428571   0.2142857   0.4285714), wk =   0.0058309
        k(  130) = (   0.2142857  -0.2142857  -0.0714286), wk =   0.0058309
        k(  131) = (  -0.1428571   0.2857143   0.0714286), wk =   0.0058309
        k(  132) = (  -0.2142857  -0.2857143  -0.4285714), wk =   0.0058309
        k(  133) = (  -0.0714286  -0.1428571   0.1428571), wk =   0.0058309
        k(  134) = (  -0.2857143  -0.2142857  -0.1428571), wk =   0.0058309
        k(  135) = (  -0.2142857  -0.0714286   0.0714286), wk =   0.0058309
        k(  136) = (  -0.1428571  -0.2857143  -0.0714286), wk =   0.0058309
        k(  137) = (   0.1428571   0.0714286  -0.1428571), wk =   0.0058309
        k(  138) = (   0.2142857   0.2857143   0.1428571), wk =   0.0058309
        k(  139) = (  -0.2857143  -0.0714286  -0.1428571), wk =   0.0058309
        k(  140) = (   0.1428571   0.2142857   0.2857143), wk =   0.0058309
        k(  141) = (   0.0714286  -0.2142857  -0.0714286), wk =   0.0058309
        k(  142) = (  -0.1428571   0.1428571   0.0714286), wk =   0.0058309
        k(  143) = (  -0.0714286  -0.1428571  -0.2857143), wk =   0.0058309
        k(  144) = (  -0.0714286   0.2857143   0.2857143), wk =   0.0029155
        k(  145) = (   0.0000000  -0.3571429  -0.2857143), wk =   0.0058309
        k(  146) = (  -0.3571429  -0.0714286  -0.3571429), wk =   0.0058309
        k(  147) = (   0.2857143   0.0000000   0.3571429), wk =   0.0058309
        k(  148) = (  -0.2857143   0.0714286  -0.2857143), wk =   0.0058309
        k(  149) = (   0.3571429  -0.0000000   0.2857143), wk =   0.0058309
        k(  150) = (  -0.0714286  -0.5714286   0.2857143), wk =   0.0058309
        k(  151) = (  -0.8571429  -0.3571429  -0.2857143), wk =   0.0058309
        k(  152) = (  -0.3571429  -0.0714286   0.5000000), wk =   0.0058309
        k(  153) = (  -0.5714286  -0.8571429  -0.5000000), wk =   0.0058309
        k(  154) = (   0.5714286   0.0714286  -0.2857143), wk =   0.0058309
        k(  155) = (   0.3571429   0.8571429   0.2857143), wk =   0.0058309
        k(  156) = (  -0.8571429  -0.5000000  -0.5714286), wk =   0.0058309
        k(  157) = (   0.2857143   0.3571429   0.8571429), wk =   0.0058309
        k(  158) = (   0.5000000  -0.3571429  -0.0714286), wk =   0.0058309
        k(  159) = (  -0.2857143   0.5714286   0.0714286), wk =   0.0058309
        k(  160) = (  -0.5000000  -0.5714286  -0.8571429), wk =   0.0058309
        k(  161) = (  -0.0714286  -0.4285714   0.2857143), wk =   0.0058309
        k(  162) = (  -0.7142857  -0.3571429  -0.2857143), wk =   0.0058309
        k(  163) = (  -0.3571429  -0.0714286   0.3571429), wk =   0.0058309
        k(  164) = (  -0.4285714  -0.7142857  -0.3571429), wk =   0.0058309
        k(  165) = (   0.4285714   0.0714286  -0.2857143), wk =   0.0058309
        k(  166) = (   0.3571429   0.7142857   0.2857143), wk =   0.0058309
        k(  167) = (  -0.7142857  -0.3571429  -0.4285714), wk =   0.0058309
        k(  168) = (   0.2857143   0.3571429   0.7142857), wk =   0.0058309
        k(  169) = (   0.3571429  -0.3571429  -0.0714286), wk =   0.0058309
        k(  170) = (  -0.2857143   0.4285714   0.0714286), wk =   0.0058309
        k(  171) = (  -0.3571429  -0.4285714  -0.7142857), wk =   0.0058309
        k(  172) = (  -0.0714286  -0.2857143   0.2857143), wk =   0.0058309
        k(  173) = (  -0.5714286  -0.3571429  -0.2857143), wk =   0.0058309
        k(  174) = (  -0.3571429  -0.0714286   0.2142857), wk =   0.0058309
        k(  175) = (  -0.2857143  -0.5714286  -0.2142857), wk =   0.0058309
        k(  176) = (   0.2857143   0.0714286  -0.2857143), wk =   0.0058309
        k(  177) = (   0.3571429   0.5714286   0.2857143), wk =   0.0058309
        k(  178) = (  -0.5714286  -0.2142857  -0.2857143), wk =   0.0058309
        k(  179) = (   0.2857143   0.3571429   0.5714286), wk =   0.0058309
        k(  180) = (   0.2142857  -0.3571429  -0.0714286), wk =   0.0058309
        k(  181) = (  -0.2857143   0.2857143   0.0714286), wk =   0.0058309
        k(  182) = (  -0.2142857  -0.2857143  -0.5714286), wk =   0.0058309
        k(  183) = (  -0.0714286  -0.1428571   0.2857143), wk =   0.0058309
        k(  184) = (  -0.4285714  -0.3571429  -0.2857143), wk =   0.0058309
        k(  185) = (  -0.3571429  -0.0714286   0.0714286), wk =   0.0058309
        k(  186) = (  -0.1428571  -0.4285714  -0.0714286), wk =   0.0058309
        k(  187) = (   0.1428571   0.0714286  -0.2857143), wk =   0.0058309
        k(  188) = (   0.3571429   0.4285714   0.2857143), wk =   0.0058309
        k(  189) = (  -0.4285714  -0.0714286  -0.1428571), wk =   0.0058309
        k(  190) = (   0.2857143   0.3571429   0.4285714), wk =   0.0058309
        k(  191) = (   0.0714286  -0.3571429  -0.0714286), wk =   0.0058309
        k(  192) = (  -0.2857143   0.1428571   0.0714286), wk =   0.0058309
        k(  193) = (  -0.0714286  -0.1428571  -0.4285714), wk =   0.0058309
        k(  194) = (  -0.0714286  -0.5714286  -0.5714286), wk =   0.0029155
        k(  195) = (   0.0000000   0.5000000   0.5714286), wk =   0.0058309
        k(  196) = (   0.5000000  -0.0714286   0.5000000), wk =   0.0058309
        k(  197) = (  -0.5714286   0.0000000  -0.5000000), wk =   0.0058309
        k(  198) = (   0.5714286   0.0714286   0.5714286), wk =   0.0058309
        k(  199) = (  -0.5000000  -0.0000000  -0.5714286), wk =   0.0058309
        k(  200) = (  -0.0714286  -0.4285714  -0.5714286), wk =   0.0058309
        k(  201) = (   0.1428571   0.5000000   0.5714286), wk =   0.0058309
        k(  202) = (   0.5000000  -0.0714286   0.3571429), wk =   0.0058309
        k(  203) = (  -0.4285714   0.1428571  -0.3571429), wk =   0.0058309
        k(  204) = (   0.4285714   0.0714286   0.5714286), wk =   0.0058309
        k(  205) = (  -0.5000000  -0.1428571  -0.5714286), wk =   0.0058309
        k(  206) = (   0.1428571  -0.3571429  -0.4285714), wk =   0.0058309
        k(  207) = (  -0.5714286  -0.5000000  -0.1428571), wk =   0.0058309
        k(  208) = (   0.3571429   0.5000000  -0.0714286), wk =   0.0058309
        k(  209) = (   0.5714286   0.4285714   0.0714286), wk =   0.0058309
        k(  210) = (  -0.3571429  -0.4285714   0.1428571), wk =   0.0058309
        k(  211) = (  -0.0714286  -0.2857143  -0.5714286), wk =   0.0058309
        k(  212) = (   0.2857143   0.5000000   0.5714286), wk =   0.0058309
        k(  213) = (   0.5000000  -0.0714286   0.2142857), wk =   0.0058309
        k(  214) = (  -0.2857143   0.2857143  -0.2142857), wk =   0.0058309
        k(  215) = (   0.2857143   0.0714286   0.5714286), wk =   0.0058309
        k(  216) = (  -0.5000000  -0.2857143  -0.5714286), wk =   0.0058309
        k(  217) = (   0.2857143  -0.2142857  -0.2857143), wk =   0.0058309
        k(  218) = (  -0.5714286  -0.5000000  -0.2857143), wk =   0.0058309
        k(  219) = (   0.2142857   0.5000000  -0.0714286), wk =   0.0058309
        k(  220) = (   0.5714286   0.2857143   0.0714286), wk =   0.0058309
        k(  221) = (  -0.2142857  -0.2857143   0.2857143), wk =   0.0058309
        k(  222) = (  -0.0714286  -0.1428571  -0.5714286), wk =   0.0058309
        k(  223) = (   0.4285714   0.5000000   0.5714286), wk =   0.0058309
        k(  224) = (   0.5000000  -0.0714286   0.0714286), wk =   0.0029155
        k(  225) = (  -0.1428571   0.4285714  -0.0714286), wk =   0.0058309
        k(  226) = (  -0.5000000  -0.4285714  -0.5714286), wk =   0.0029155
        k(  227) = (   0.4285714  -0.0714286  -0.1428571), wk =   0.0058309
        k(  228) = (  -0.0714286  -0.4285714  -0.4285714), wk =   0.0029155
        k(  229) = (   0.0000000   0.3571429   0.4285714), wk =   0.0058309
        k(  230) = (   0.3571429  -0.0714286   0.3571429), wk =   0.0058309
        k(  231) = (  -0.4285714   0.0000000  -0.3571429), wk =   0.0058309
        k(  232) = (   0.4285714   0.0714286   0.4285714), wk =   0.0058309
        k(  233) = (  -0.3571429  -0.0000000  -0.4285714), wk =   0.0058309
        k(  234) = (  -0.0714286  -0.2857143  -0.4285714), wk =   0.0058309
        k(  235) = (   0.1428571   0.3571429   0.4285714), wk =   0.0058309
        k(  236) = (   0.3571429  -0.0714286   0.2142857), wk =   0.0058309
        k(  237) = (  -0.2857143   0.1428571  -0.2142857), wk =   0.0058309
        k(  238) = (   0.2857143   0.0714286   0.4285714), wk =   0.0058309
        k(  239) = (  -0.3571429  -0.1428571  -0.4285714), wk =   0.0058309
        k(  240) = (   0.1428571  -0.2142857  -0.2857143), wk =   0.0058309
        k(  241) = (  -0.4285714  -0.3571429  -0.1428571), wk =   0.0058309
        k(  242) = (   0.2142857   0.3571429  -0.0714286), wk =   0.0058309
        k(  243) = (   0.4285714   0.2857143   0.0714286), wk =   0.0058309
        k(  244) = (  -0.2142857  -0.2857143   0.1428571), wk =   0.0058309
        k(  245) = (  -0.0714286  -0.2857143  -0.2857143), wk =   0.0029155
        k(  246) = (  -0.0000000   0.2142857   0.2857143), wk =   0.0058309
        k(  247) = (   0.2142857  -0.0714286   0.2142857), wk =   0.0058309
        k(  248) = (  -0.2857143  -0.0000000  -0.2142857), wk =   0.0058309
        k(  249) = (   0.2857143   0.0714286   0.2857143), wk =   0.0058309
        k(  250) = (  -0.2142857   0.0000000  -0.2857143), wk =   0.0058309
        k(  251) = (  -0.2142857  -0.0000000  -0.0000000), wk =   0.0029155
        k(  252) = (  -0.0000000  -0.2142857   0.0000000), wk =   0.0058309
        k(  253) = (  -0.2142857   0.1428571   0.0000000), wk =   0.0058309
        k(  254) = (   0.1428571  -0.2142857  -0.0000000), wk =   0.0058309
        k(  255) = (   0.1428571   0.1428571   0.3571429), wk =   0.0058309
        k(  256) = (   0.0000000   0.2142857  -0.1428571), wk =   0.0058309
        k(  257) = (  -0.3571429  -0.2142857  -0.2142857), wk =   0.0029155
        k(  258) = (   0.3571429   0.1428571   0.1428571), wk =   0.0029155
        k(  259) = (  -0.2142857  -0.7142857   0.0000000), wk =   0.0058309
        k(  260) = (  -0.7142857  -0.2142857  -0.0000000), wk =   0.0058309
        k(  261) = (  -0.7142857  -0.7142857  -0.5000000), wk =   0.0058309
        k(  262) = (  -0.0000000   0.2142857   0.7142857), wk =   0.0058309
        k(  263) = (   0.5000000  -0.2142857  -0.2142857), wk =   0.0029155
        k(  264) = (  -0.5000000  -0.7142857  -0.7142857), wk =   0.0029155
        k(  265) = (  -0.2142857  -0.5714286   0.0000000), wk =   0.0058309
        k(  266) = (  -0.5714286  -0.2142857   0.0000000), wk =   0.0058309
        k(  267) = (  -0.5714286  -0.5714286  -0.3571429), wk =   0.0058309
        k(  268) = (   0.0000000   0.2142857   0.5714286), wk =   0.0058309
        k(  269) = (   0.3571429  -0.2142857  -0.2142857), wk =   0.0029155
        k(  270) = (  -0.3571429  -0.5714286  -0.5714286), wk =   0.0029155
        k(  271) = (  -0.2142857  -0.4285714   0.0000000), wk =   0.0058309
        k(  272) = (  -0.4285714  -0.2142857  -0.0000000), wk =   0.0058309
        k(  273) = (  -0.4285714  -0.4285714  -0.2142857), wk =   0.0058309
        k(  274) = (   0.0000000   0.2142857   0.4285714), wk =   0.0058309
        k(  275) = (   0.2142857  -0.2142857  -0.2142857), wk =   0.0029155
        k(  276) = (  -0.2142857  -0.4285714  -0.4285714), wk =   0.0029155
        k(  277) = (  -0.2142857   0.1428571   0.1428571), wk =   0.0029155
        k(  278) = (  -0.0000000  -0.3571429  -0.1428571), wk =   0.0058309
        k(  279) = (  -0.3571429  -0.2142857  -0.3571429), wk =   0.0058309
        k(  280) = (   0.1428571  -0.0000000   0.3571429), wk =   0.0058309
        k(  281) = (  -0.1428571   0.2142857  -0.1428571), wk =   0.0058309
        k(  282) = (   0.3571429   0.0000000   0.1428571), wk =   0.0058309
        k(  283) = (  -0.2142857  -0.7142857   0.1428571), wk =   0.0058309
        k(  284) = (  -0.8571429  -0.3571429  -0.1428571), wk =   0.0058309
        k(  285) = (  -0.3571429  -0.2142857   0.5000000), wk =   0.0058309
        k(  286) = (  -0.7142857  -0.8571429  -0.5000000), wk =   0.0058309
        k(  287) = (   0.7142857   0.2142857  -0.1428571), wk =   0.0058309
        k(  288) = (   0.3571429   0.8571429   0.1428571), wk =   0.0058309
        k(  289) = (  -0.8571429  -0.5000000  -0.7142857), wk =   0.0058309
        k(  290) = (   0.1428571   0.3571429   0.8571429), wk =   0.0058309
        k(  291) = (   0.5000000  -0.3571429  -0.2142857), wk =   0.0058309
        k(  292) = (  -0.1428571   0.7142857   0.2142857), wk =   0.0058309
        k(  293) = (  -0.5000000  -0.7142857  -0.8571429), wk =   0.0058309
        k(  294) = (  -0.2142857  -0.5714286   0.1428571), wk =   0.0058309
        k(  295) = (  -0.7142857  -0.3571429  -0.1428571), wk =   0.0058309
        k(  296) = (  -0.3571429  -0.2142857   0.3571429), wk =   0.0058309
        k(  297) = (  -0.5714286  -0.7142857  -0.3571429), wk =   0.0058309
        k(  298) = (   0.5714286   0.2142857  -0.1428571), wk =   0.0058309
        k(  299) = (   0.3571429   0.7142857   0.1428571), wk =   0.0058309
        k(  300) = (  -0.7142857  -0.3571429  -0.5714286), wk =   0.0058309
        k(  301) = (   0.1428571   0.3571429   0.7142857), wk =   0.0058309
        k(  302) = (   0.3571429  -0.3571429  -0.2142857), wk =   0.0058309
        k(  303) = (  -0.1428571   0.5714286   0.2142857), wk =   0.0058309
        k(  304) = (  -0.3571429  -0.5714286  -0.7142857), wk =   0.0058309
        k(  305) = (  -0.2142857  -0.4285714   0.1428571), wk =   0.0058309
        k(  306) = (  -0.5714286  -0.3571429  -0.1428571), wk =   0.0058309
        k(  307) = (  -0.3571429  -0.2142857   0.2142857), wk =   0.0058309
        k(  308) = (  -0.4285714  -0.5714286  -0.2142857), wk =   0.0058309
        k(  309) = (   0.4285714   0.2142857  -0.1428571), wk =   0.0058309
        k(  310) = (   0.3571429   0.5714286   0.1428571), wk =   0.0058309
        k(  311) = (  -0.5714286  -0.2142857  -0.4285714), wk =   0.0058309
        k(  312) = (   0.1428571   0.3571429   0.5714286), wk =   0.0058309
        k(  313) = (   0.2142857  -0.3571429  -0.2142857), wk =   0.0058309
        k(  314) = (  -0.1428571   0.4285714   0.2142857), wk =   0.0058309
        k(  315) = (  -0.2142857  -0.4285714  -0.5714286), wk =   0.0058309
        k(  316) = (  -0.2142857  -0.7142857  -0.7142857), wk =   0.0029155
        k(  317) = (   0.0000000   0.5000000   0.7142857), wk =   0.0058309
        k(  318) = (   0.5000000  -0.2142857   0.5000000), wk =   0.0058309
        k(  319) = (  -0.7142857   0.0000000  -0.5000000), wk =   0.0058309
        k(  320) = (   0.7142857   0.2142857   0.7142857), wk =   0.0058309
        k(  321) = (  -0.5000000  -0.0000000  -0.7142857), wk =   0.0058309
        k(  322) = (  -0.2142857  -0.5714286  -0.7142857), wk =   0.0058309
        k(  323) = (   0.1428571   0.5000000   0.7142857), wk =   0.0058309
        k(  324) = (   0.5000000  -0.2142857   0.3571429), wk =   0.0058309
        k(  325) = (  -0.5714286   0.1428571  -0.3571429), wk =   0.0058309
        k(  326) = (   0.5714286   0.2142857   0.7142857), wk =   0.0058309
        k(  327) = (  -0.5000000  -0.1428571  -0.7142857), wk =   0.0058309
        k(  328) = (   0.1428571  -0.3571429  -0.5714286), wk =   0.0058309
        k(  329) = (  -0.7142857  -0.5000000  -0.1428571), wk =   0.0058309
        k(  330) = (   0.3571429   0.5000000  -0.2142857), wk =   0.0058309
        k(  331) = (   0.7142857   0.5714286   0.2142857), wk =   0.0058309
        k(  332) = (  -0.3571429  -0.5714286   0.1428571), wk =   0.0058309
        k(  333) = (  -0.2142857  -0.4285714  -0.7142857), wk =   0.0058309
        k(  334) = (   0.2857143   0.5000000   0.7142857), wk =   0.0058309
        k(  335) = (   0.5000000  -0.2142857   0.2142857), wk =   0.0029155
        k(  336) = (  -0.4285714   0.2857143  -0.2142857), wk =   0.0058309
        k(  337) = (  -0.5000000  -0.2857143  -0.7142857), wk =   0.0029155
        k(  338) = (   0.2857143  -0.2142857  -0.4285714), wk =   0.0058309
        k(  339) = (  -0.2142857  -0.5714286  -0.5714286), wk =   0.0029155
        k(  340) = (   0.0000000   0.3571429   0.5714286), wk =   0.0058309
        k(  341) = (   0.3571429  -0.2142857   0.3571429), wk =   0.0058309
        k(  342) = (  -0.5714286   0.0000000  -0.3571429), wk =   0.0058309
        k(  343) = (   0.5714286   0.2142857   0.5714286), wk =   0.0058309
        k(  344) = (  -0.3571429  -0.0000000  -0.5714286), wk =   0.0058309
        k(  345) = (  -0.3571429  -0.0000000  -0.0000000), wk =   0.0029155
        k(  346) = (   0.0000000  -0.3571429   0.0000000), wk =   0.0058309
        k(  347) = (  -0.3571429  -0.8571429   0.0000000), wk =   0.0058309
        k(  348) = (  -0.8571429  -0.3571429  -0.0000000), wk =   0.0058309
        k(  349) = (  -0.8571429  -0.8571429  -0.5000000), wk =   0.0058309
        k(  350) = (  -0.0000000   0.3571429   0.8571429), wk =   0.0058309
        k(  351) = (   0.5000000  -0.3571429  -0.3571429), wk =   0.0029155
        k(  352) = (  -0.5000000  -0.8571429  -0.8571429), wk =   0.0029155
        k(  353) = (  -0.3571429  -0.7142857  -0.0000000), wk =   0.0058309
        k(  354) = (  -0.7142857  -0.3571429   0.0000000), wk =   0.0058309
        k(  355) = (  -0.7142857  -0.7142857  -0.3571429), wk =   0.0058309
        k(  356) = (  -0.0000000   0.3571429   0.7142857), wk =   0.0058309
        k(  357) = (   0.3571429  -0.3571429  -0.3571429), wk =   0.0029155
        k(  358) = (  -0.3571429  -0.7142857  -0.7142857), wk =   0.0029155
        k(  359) = (  -0.3571429  -0.8571429  -0.8571429), wk =   0.0029155
        k(  360) = (  -0.0000000   0.5000000   0.8571429), wk =   0.0058309
        k(  361) = (   0.5000000  -0.3571429   0.5000000), wk =   0.0058309
        k(  362) = (  -0.8571429   0.0000000  -0.5000000), wk =   0.0058309
        k(  363) = (   0.8571429   0.3571429   0.8571429), wk =   0.0058309
        k(  364) = (  -0.5000000   0.0000000  -0.8571429), wk =   0.0058309
        k(  365) = (  -0.3571429  -0.7142857  -0.8571429), wk =   0.0058309
        k(  366) = (   0.1428571   0.5000000   0.8571429), wk =   0.0058309
        k(  367) = (   0.5000000  -0.3571429   0.3571429), wk =   0.0029155
        k(  368) = (  -0.7142857   0.1428571  -0.3571429), wk =   0.0058309
        k(  369) = (  -0.5000000  -0.1428571  -0.8571429), wk =   0.0029155
        k(  370) = (   0.1428571  -0.3571429  -0.7142857), wk =   0.0058309
        k(  371) = (   0.5000000   0.0000000   0.0000000), wk =   0.0014577
        k(  372) = (   0.0000000   0.5000000  -0.0000000), wk =   0.0029155

     Dense  grid:   133115 G-vectors     FFT dimensions: (  72,  72,  72)

     Smooth grid:    47183 G-vectors     FFT dimensions: (  54,  54,  54)

     Dynamical RAM for                 wfc:       0.57 MB

     Dynamical RAM for     wfc (w. buffer):     212.17 MB

     Dynamical RAM for           str. fact:       0.34 MB

     Dynamical RAM for           local pot:       0.00 MB

     Dynamical RAM for          nlocal pot:       4.31 MB

     Dynamical RAM for                qrad:       1.24 MB

     Dynamical RAM for          rho,v,vnew:       2.44 MB

     Dynamical RAM for               rhoin:       0.81 MB

     Dynamical RAM for            rho*nmix:       5.42 MB

     Dynamical RAM for           G-vectors:       1.33 MB

     Dynamical RAM for          h,s,v(r/c):       0.26 MB

     Dynamical RAM for          <psi|beta>:       0.17 MB

     Dynamical RAM for                 psi:       1.14 MB

     Dynamical RAM for                hpsi:       1.14 MB

     Dynamical RAM for                spsi:       1.14 MB

     Dynamical RAM for      wfcinit/wfcrot:       1.17 MB

     Dynamical RAM for           addusdens:      68.38 MB

     Dynamical RAM for          addusforce:      78.77 MB

     Dynamical RAM for         addusstress:      68.04 MB

     Estimated static dynamical RAM per process >     225.69 MB

     Estimated max dynamical RAM per process >     309.88 MB

     Estimated total dynamical RAM >       1.82 GB

     Initial potential from superposition of free atoms

     starting charge      63.9911, renormalised to      64.0000
     Starting wfcs are   64 randomized atomic wfcs
