
     Program PWSCF v.7.5 starts on  7May2026 at 13:50:15 

     This program is part of the open-source Quantum ESPRESSO suite
     for quantum simulation of materials; please cite
         "P. Giannozzi et al., J. Phys.:Condens. Matter 21 395502 (2009);
         "P. Giannozzi et al., J. Phys.:Condens. Matter 29 465901 (2017);
         "P. Giannozzi et al., J. Chem. Phys. 152 154105 (2020);
          URL http://www.quantum-espresso.org", 
     in publications or presentations arising from this work. More details at
     http://www.quantum-espresso.org/quote

     Parallel version (MPI), running on     6 processors

     MPI processes distributed on     1 nodes
     0 MiB available memory on the printing compute node when the environment starts

     Reading input from silicon-001.in

     Current dimensions of program PWSCF are:
     Max number of different atomic species (ntypx) = 10
     Max number of k-points (npk) =  40000
     Max angular momentum in pseudopotentials (lmaxx) =  4
     Message from routine setup:
     using ibrav=0 with symmetry is DISCOURAGED, use correct ibrav instead

     R & G space division:  proc/nbgrp/npool/nimage =       6
     Subspace diagonalization in iterative solution of the eigenvalue problem:
     a serial algorithm will be used


     Parallelization info
     --------------------
     sticks:   dense  smooth     PW     G-vecs:    dense   smooth      PW
     Min         572     287     83                22185     7863    1231
     Max         574     288     84                22187     7866    1235
     Sum        3439    1723    499               133115    47183    7391

     Using Slab Decomposition



     bravais-lattice index     =            0
     lattice parameter (alat)  =      14.4250  a.u.
     unit-cell volume          =    2122.4160 (a.u.)^3
     number of atoms/cell      =           16
     number of atomic types    =            1
     number of electrons       =        64.00
     number of Kohn-Sham states=           38
     kinetic-energy cutoff     =      30.0000  Ry
     charge density cutoff     =     240.0000  Ry
     scf convergence threshold =      4.0E-10
     mixing beta               =       0.4000
     number of iterations used =            8  plain     mixing
     Exchange-correlation= PBE
                           (   1   4   3   4   0   0   0)

     celldm(1)=  14.424978  celldm(2)=   0.000000  celldm(3)=   0.000000
     celldm(4)=   0.000000  celldm(5)=   0.000000  celldm(6)=   0.000000

     crystal axes: (cart. coord. in units of alat)
               a(1) = (  -0.707107   0.000000   0.707107 )  
               a(2) = (   0.000000   0.707107   0.707107 )  
               a(3) = (  -0.707107   0.707107   0.000000 )  

     reciprocal axes: (cart. coord. in units 2 pi/alat)
               b(1) = ( -0.707107 -0.707107  0.707107 )  
               b(2) = (  0.707107  0.707107  0.707107 )  
               b(3) = ( -0.707107  0.707107 -0.707107 )  


     PseudoPot. # 1 for Si read from file:
     ./pseudo/Si.pbe-n-rrkjus_psl.1.0.0.UPF
     MD5 check sum: 0b0bb1205258b0d07b9f9672cf965d36
     Pseudo is Ultrasoft + core correction, Zval =  4.0
     Generated using "atomic" code by A. Dal Corso  v.5.1
     Using radial grid of 1141 points,  6 beta functions with: 
                l(1) =   0
                l(2) =   0
                l(3) =   1
                l(4) =   1
                l(5) =   2
                l(6) =   2
     Q(r) pseudized with 0 coefficients 


     atomic species   valence    mass     pseudopotential
     Si                4.00    28.08550     Si( 1.00)

      2 Sym. Ops. (no inversion) found


                                    s                        frac. trans.

      isym =  1     identity                                     

 cryst.   s( 1) = (     1          0          0      )
                  (     0          1          0      )
                  (     0          0          1      )

 cart.    s( 1) = (  1.0000000  0.0000000 -0.0000000 )
                  (  0.0000000  1.0000000  0.0000000 )
                  ( -0.0000000 -0.0000000  1.0000000 )


      isym =  2     inv. 180 deg rotation - cart. axis [1,0,1]   

 cryst.   s( 2) = (     1          0          0      )
                  (     0          0          1      )
                  (     0          1          0      )

 cart.    s( 2) = (  0.0000000  0.0000000 -1.0000000 )
                  ( -0.0000000  1.0000000 -0.0000000 )
                  ( -1.0000000 -0.0000000  0.0000000 )


   Cartesian axes

     site n.     atom                  positions (alat units)
         1        Si     tau(   1) = (  -0.0009804   0.0000000   0.0009804  )
         2        Si     tau(   2) = (  -0.3535534   0.0000000   0.3535534  )
         3        Si     tau(   3) = (   0.0000000   0.3535534   0.3535534  )
         4        Si     tau(   4) = (  -0.3535534   0.3535534   0.7071068  )
         5        Si     tau(   5) = (  -0.3535534   0.3535534   0.0000000  )
         6        Si     tau(   6) = (  -0.7071068   0.3535534   0.3535534  )
         7        Si     tau(   7) = (  -0.3535534   0.7071068   0.3535534  )
         8        Si     tau(   8) = (  -0.7071068   0.7071068   0.7071068  )
         9        Si     tau(   9) = (  -1.2374369   0.8838835   0.8838835  )
        10        Si     tau(  10) = (  -0.8838835   0.8838835   0.5303301  )
        11        Si     tau(  11) = (  -1.2374369   1.2374369   1.2374369  )
        12        Si     tau(  12) = (  -0.8838835   1.2374369   0.8838835  )
        13        Si     tau(  13) = (  -0.8838835   0.5303301   0.8838835  )
        14        Si     tau(  14) = (  -0.5303301   0.5303301   0.5303301  )
        15        Si     tau(  15) = (  -0.8838835   0.8838835   1.2374369  )
        16        Si     tau(  16) = (  -0.5303301   0.8838835   0.8838835  )

   Crystallographic axes

     site n.     atom                  positions (cryst. coord.)
         1        Si     tau(   1) = (  0.0013865  0.0000000 -0.0000000  )
         2        Si     tau(   2) = (  0.5000000 -0.0000000  0.0000000  )
         3        Si     tau(   3) = ( -0.0000000  0.5000000  0.0000000  )
         4        Si     tau(   4) = (  0.5000000  0.5000000  0.0000000  )
         5        Si     tau(   5) = ( -0.0000000  0.0000000  0.5000000  )
         6        Si     tau(   6) = (  0.5000000  0.0000000  0.5000000  )
         7        Si     tau(   7) = ( -0.0000000  0.5000000  0.5000000  )
         8        Si     tau(   8) = (  0.5000000  0.5000000  0.5000000  )
         9        Si     tau(   9) = (  0.8750000  0.3750000  0.8750000  )
        10        Si     tau(  10) = (  0.3750000  0.3750000  0.8750000  )
        11        Si     tau(  11) = (  0.8750000  0.8750000  0.8750000  )
        12        Si     tau(  12) = (  0.3750000  0.8750000  0.8750000  )
        13        Si     tau(  13) = (  0.8750000  0.3750000  0.3750000  )
        14        Si     tau(  14) = (  0.3750000  0.3750000  0.3750000  )
        15        Si     tau(  15) = (  0.8750000  0.8750000  0.3750000  )
        16        Si     tau(  16) = (  0.3750000  0.8750000  0.3750000  )

     number of k points=   372  Marzari-Vanderbilt smearing, width (Ry)=  0.0200
                       cart. coord. in units 2pi/alat
        k(    1) = (  -0.0505076   0.0505076   0.0505076), wk =   0.0029155
        k(    2) = (  -0.1515229   0.1515229  -0.0505076), wk =   0.0058309
        k(    3) = (  -0.2525381   0.2525381  -0.1515229), wk =   0.0058309
        k(    4) = (   0.3535534  -0.3535534   0.4545686), wk =   0.0058309
        k(    5) = (   0.2525381  -0.2525381   0.3535534), wk =   0.0058309
        k(    6) = (   0.1515229  -0.1515229   0.2525381), wk =   0.0058309
        k(    7) = (   0.0505076  -0.0505076   0.1515229), wk =   0.0058309
        k(    8) = (  -0.0505076   0.2525381   0.0505076), wk =   0.0029155
        k(    9) = (  -0.1515229   0.3535534  -0.0505076), wk =   0.0058309
        k(   10) = (   0.4545686  -0.2525381   0.5555839), wk =   0.0058309
        k(   11) = (   0.3535534  -0.1515229   0.4545686), wk =   0.0058309
        k(   12) = (   0.2525381  -0.0505076   0.3535534), wk =   0.0058309
        k(   13) = (   0.1515229   0.0505076   0.2525381), wk =   0.0058309
        k(   14) = (  -0.0505076   0.4545686   0.0505076), wk =   0.0029155
        k(   15) = (   0.5555839  -0.1515229   0.6565992), wk =   0.0058309
        k(   16) = (   0.4545686  -0.0505076   0.5555839), wk =   0.0058309
        k(   17) = (   0.3535534   0.0505076   0.4545686), wk =   0.0058309
        k(   18) = (   0.2525381   0.1515229   0.3535534), wk =   0.0058309
        k(   19) = (  -0.0505076  -0.7576144   0.0505076), wk =   0.0029155
        k(   20) = (  -0.1515229  -0.6565992  -0.0505076), wk =   0.0058309
        k(   21) = (  -0.2525381  -0.5555839  -0.1515229), wk =   0.0058309
        k(   22) = (  -0.3535534  -0.4545686  -0.2525381), wk =   0.0058309
        k(   23) = (  -0.0505076  -0.5555839   0.0505076), wk =   0.0029155
        k(   24) = (  -0.1515229  -0.4545686  -0.0505076), wk =   0.0058309
        k(   25) = (  -0.0505076  -0.3535534   0.0505076), wk =   0.0029155
        k(   26) = (  -0.1515229   0.1515229   0.1515229), wk =   0.0029155
        k(   27) = (  -0.2525381   0.2525381   0.0505076), wk =   0.0058309
        k(   28) = (   0.3535534  -0.3535534   0.6565992), wk =   0.0058309
        k(   29) = (   0.2525381  -0.2525381   0.5555839), wk =   0.0058309
        k(   30) = (   0.1515229  -0.1515229   0.4545686), wk =   0.0058309
        k(   31) = (  -0.1515229   0.3535534   0.1515229), wk =   0.0029155
        k(   32) = (   0.4545686  -0.2525381   0.7576144), wk =   0.0058309
        k(   33) = (   0.3535534  -0.1515229   0.6565992), wk =   0.0058309
        k(   34) = (   0.2525381  -0.0505076   0.5555839), wk =   0.0058309
        k(   35) = (  -0.1515229  -0.8586297   0.1515229), wk =   0.0029155
        k(   36) = (  -0.2525381  -0.7576144   0.0505076), wk =   0.0058309
        k(   37) = (  -0.3535534  -0.6565992  -0.0505076), wk =   0.0058309
        k(   38) = (  -0.1515229  -0.6565992   0.1515229), wk =   0.0029155
        k(   39) = (  -0.2525381   0.2525381   0.2525381), wk =   0.0029155
        k(   40) = (   0.3535534  -0.3535534   0.8586297), wk =   0.0058309
        k(   41) = (   0.2525381  -0.2525381   0.7576144), wk =   0.0058309
        k(   42) = (  -0.2525381  -0.9596449   0.2525381), wk =   0.0029155
        k(   43) = (  -0.3535534  -0.8586297   0.1515229), wk =   0.0058309
        k(   44) = (   0.3535534  -0.3535534  -0.3535534), wk =   0.0014577
        k(   45) = (   0.0505076   0.0505076  -0.0505076), wk =   0.0029155
        k(   46) = (  -0.0505076  -0.0505076  -0.0505076), wk =   0.0058309
        k(   47) = (   0.1515229   0.1515229   0.0505076), wk =   0.0058309
        k(   48) = (  -0.1515229  -0.1515229   0.0505076), wk =   0.0058309
        k(   49) = (  -0.1515229   0.1515229   0.0505076), wk =   0.0058309
        k(   50) = (   0.1515229  -0.0505076   0.1515229), wk =   0.0058309
        k(   51) = (   0.1515229   0.0505076  -0.1515229), wk =   0.0029155
        k(   52) = (  -0.1515229   0.0505076   0.1515229), wk =   0.0029155
        k(   53) = (   0.2525381   0.2525381   0.1515229), wk =   0.0058309
        k(   54) = (  -0.2525381  -0.2525381   0.1515229), wk =   0.0058309
        k(   55) = (  -0.2525381   0.2525381   0.1515229), wk =   0.0058309
        k(   56) = (   0.2525381  -0.1515229   0.2525381), wk =   0.0058309
        k(   57) = (   0.2525381   0.1515229  -0.2525381), wk =   0.0029155
        k(   58) = (  -0.2525381   0.1515229   0.2525381), wk =   0.0029155
        k(   59) = (  -0.3535534  -0.3535534  -0.4545686), wk =   0.0058309
        k(   60) = (   0.3535534   0.3535534  -0.4545686), wk =   0.0058309
        k(   61) = (   0.3535534  -0.3535534  -0.4545686), wk =   0.0058309
        k(   62) = (  -0.3535534   0.4545686  -0.3535534), wk =   0.0058309
        k(   63) = (  -0.3535534  -0.4545686   0.3535534), wk =   0.0029155
        k(   64) = (   0.3535534  -0.4545686  -0.3535534), wk =   0.0029155
        k(   65) = (  -0.2525381  -0.2525381  -0.3535534), wk =   0.0058309
        k(   66) = (   0.2525381   0.2525381  -0.3535534), wk =   0.0058309
        k(   67) = (   0.2525381  -0.2525381  -0.3535534), wk =   0.0058309
        k(   68) = (  -0.2525381   0.3535534  -0.2525381), wk =   0.0058309
        k(   69) = (  -0.2525381  -0.3535534   0.2525381), wk =   0.0029155
        k(   70) = (   0.2525381  -0.3535534  -0.2525381), wk =   0.0029155
        k(   71) = (  -0.1515229  -0.1515229  -0.2525381), wk =   0.0058309
        k(   72) = (   0.1515229   0.1515229  -0.2525381), wk =   0.0058309
        k(   73) = (   0.1515229  -0.1515229  -0.2525381), wk =   0.0058309
        k(   74) = (  -0.1515229   0.2525381  -0.1515229), wk =   0.0058309
        k(   75) = (  -0.1515229  -0.2525381   0.1515229), wk =   0.0029155
        k(   76) = (   0.1515229  -0.2525381  -0.1515229), wk =   0.0029155
        k(   77) = (  -0.0505076  -0.0505076  -0.1515229), wk =   0.0058309
        k(   78) = (   0.0505076   0.0505076  -0.1515229), wk =   0.0058309
        k(   79) = (   0.0505076  -0.0505076  -0.1515229), wk =   0.0058309
        k(   80) = (  -0.0505076   0.1515229  -0.0505076), wk =   0.0058309
        k(   81) = (  -0.0505076  -0.1515229   0.0505076), wk =   0.0029155
        k(   82) = (   0.0505076  -0.1515229  -0.0505076), wk =   0.0029155
        k(   83) = (   0.0505076   0.2525381  -0.0505076), wk =   0.0029155
        k(   84) = (  -0.0505076  -0.2525381  -0.0505076), wk =   0.0058309
        k(   85) = (   0.2525381  -0.0505076  -0.0505076), wk =   0.0058309
        k(   86) = (  -0.2525381   0.0505076  -0.0505076), wk =   0.0058309
        k(   87) = (   0.2525381   0.0505076   0.0505076), wk =   0.0058309
        k(   88) = (  -0.2525381  -0.0505076   0.0505076), wk =   0.0058309
        k(   89) = (   0.1515229   0.3535534   0.0505076), wk =   0.0058309
        k(   90) = (  -0.1515229  -0.3535534   0.0505076), wk =   0.0058309
        k(   91) = (   0.3535534  -0.1515229   0.0505076), wk =   0.0058309
        k(   92) = (  -0.3535534   0.1515229   0.0505076), wk =   0.0058309
        k(   93) = (   0.3535534   0.1515229  -0.0505076), wk =   0.0058309
        k(   94) = (  -0.3535534  -0.1515229  -0.0505076), wk =   0.0058309
        k(   95) = (  -0.0505076   0.3535534   0.1515229), wk =   0.0058309
        k(   96) = (   0.1515229  -0.0505076   0.3535534), wk =   0.0058309
        k(   97) = (   0.1515229   0.0505076  -0.3535534), wk =   0.0058309
        k(   98) = (  -0.1515229  -0.0505076  -0.3535534), wk =   0.0058309
        k(   99) = (  -0.1515229   0.0505076   0.3535534), wk =   0.0058309
        k(  100) = (  -0.4545686  -0.2525381  -0.5555839), wk =   0.0058309
        k(  101) = (   0.4545686   0.2525381  -0.5555839), wk =   0.0058309
        k(  102) = (  -0.2525381   0.4545686  -0.5555839), wk =   0.0058309
        k(  103) = (   0.2525381  -0.4545686  -0.5555839), wk =   0.0058309
        k(  104) = (  -0.2525381  -0.4545686   0.5555839), wk =   0.0058309
        k(  105) = (   0.2525381   0.4545686   0.5555839), wk =   0.0058309
        k(  106) = (   0.5555839  -0.2525381  -0.4545686), wk =   0.0058309
        k(  107) = (  -0.4545686   0.5555839  -0.2525381), wk =   0.0058309
        k(  108) = (  -0.4545686  -0.5555839   0.2525381), wk =   0.0058309
        k(  109) = (   0.4545686   0.5555839   0.2525381), wk =   0.0058309
        k(  110) = (   0.4545686  -0.5555839  -0.2525381), wk =   0.0058309
        k(  111) = (  -0.3535534  -0.1515229  -0.4545686), wk =   0.0058309
        k(  112) = (   0.3535534   0.1515229  -0.4545686), wk =   0.0058309
        k(  113) = (  -0.1515229   0.3535534  -0.4545686), wk =   0.0058309
        k(  114) = (   0.1515229  -0.3535534  -0.4545686), wk =   0.0058309
        k(  115) = (  -0.1515229  -0.3535534   0.4545686), wk =   0.0058309
        k(  116) = (   0.1515229   0.3535534   0.4545686), wk =   0.0058309
        k(  117) = (   0.4545686  -0.1515229  -0.3535534), wk =   0.0058309
        k(  118) = (  -0.3535534   0.4545686  -0.1515229), wk =   0.0058309
        k(  119) = (  -0.3535534  -0.4545686   0.1515229), wk =   0.0058309
        k(  120) = (   0.3535534   0.4545686   0.1515229), wk =   0.0058309
        k(  121) = (   0.3535534  -0.4545686  -0.1515229), wk =   0.0058309
        k(  122) = (  -0.2525381  -0.0505076  -0.3535534), wk =   0.0058309
        k(  123) = (   0.2525381   0.0505076  -0.3535534), wk =   0.0058309
        k(  124) = (  -0.0505076   0.2525381  -0.3535534), wk =   0.0058309
        k(  125) = (   0.0505076  -0.2525381  -0.3535534), wk =   0.0058309
        k(  126) = (  -0.0505076  -0.2525381   0.3535534), wk =   0.0058309
        k(  127) = (   0.0505076   0.2525381   0.3535534), wk =   0.0058309
        k(  128) = (   0.3535534  -0.0505076  -0.2525381), wk =   0.0058309
        k(  129) = (  -0.2525381   0.3535534  -0.0505076), wk =   0.0058309
        k(  130) = (  -0.2525381  -0.3535534   0.0505076), wk =   0.0058309
        k(  131) = (   0.2525381   0.3535534   0.0505076), wk =   0.0058309
        k(  132) = (   0.2525381  -0.3535534  -0.0505076), wk =   0.0058309
        k(  133) = (  -0.1515229   0.0505076  -0.2525381), wk =   0.0058309
        k(  134) = (   0.1515229  -0.0505076  -0.2525381), wk =   0.0058309
        k(  135) = (   0.0505076   0.1515229  -0.2525381), wk =   0.0058309
        k(  136) = (  -0.0505076  -0.1515229  -0.2525381), wk =   0.0058309
        k(  137) = (   0.0505076  -0.1515229   0.2525381), wk =   0.0058309
        k(  138) = (  -0.0505076   0.1515229   0.2525381), wk =   0.0058309
        k(  139) = (   0.2525381   0.0505076  -0.1515229), wk =   0.0058309
        k(  140) = (  -0.1515229   0.2525381   0.0505076), wk =   0.0058309
        k(  141) = (  -0.1515229  -0.2525381  -0.0505076), wk =   0.0058309
        k(  142) = (   0.1515229   0.2525381  -0.0505076), wk =   0.0058309
        k(  143) = (   0.1515229  -0.2525381   0.0505076), wk =   0.0058309
        k(  144) = (   0.0505076   0.4545686  -0.0505076), wk =   0.0029155
        k(  145) = (  -0.0505076  -0.4545686  -0.0505076), wk =   0.0058309
        k(  146) = (   0.4545686  -0.0505076  -0.0505076), wk =   0.0058309
        k(  147) = (  -0.4545686   0.0505076  -0.0505076), wk =   0.0058309
        k(  148) = (   0.4545686   0.0505076   0.0505076), wk =   0.0058309
        k(  149) = (  -0.4545686  -0.0505076   0.0505076), wk =   0.0058309
        k(  150) = (  -0.5555839  -0.1515229  -0.6565992), wk =   0.0058309
        k(  151) = (   0.5555839   0.1515229  -0.6565992), wk =   0.0058309
        k(  152) = (  -0.1515229   0.5555839  -0.6565992), wk =   0.0058309
        k(  153) = (   0.1515229  -0.5555839  -0.6565992), wk =   0.0058309
        k(  154) = (  -0.1515229  -0.5555839   0.6565992), wk =   0.0058309
        k(  155) = (   0.1515229   0.5555839   0.6565992), wk =   0.0058309
        k(  156) = (   0.6565992  -0.1515229  -0.5555839), wk =   0.0058309
        k(  157) = (  -0.5555839   0.6565992  -0.1515229), wk =   0.0058309
        k(  158) = (  -0.5555839  -0.6565992   0.1515229), wk =   0.0058309
        k(  159) = (   0.5555839   0.6565992   0.1515229), wk =   0.0058309
        k(  160) = (   0.5555839  -0.6565992  -0.1515229), wk =   0.0058309
        k(  161) = (  -0.4545686  -0.0505076  -0.5555839), wk =   0.0058309
        k(  162) = (   0.4545686   0.0505076  -0.5555839), wk =   0.0058309
        k(  163) = (  -0.0505076   0.4545686  -0.5555839), wk =   0.0058309
        k(  164) = (   0.0505076  -0.4545686  -0.5555839), wk =   0.0058309
        k(  165) = (  -0.0505076  -0.4545686   0.5555839), wk =   0.0058309
        k(  166) = (   0.0505076   0.4545686   0.5555839), wk =   0.0058309
        k(  167) = (   0.5555839  -0.0505076  -0.4545686), wk =   0.0058309
        k(  168) = (  -0.4545686   0.5555839  -0.0505076), wk =   0.0058309
        k(  169) = (  -0.4545686  -0.5555839   0.0505076), wk =   0.0058309
        k(  170) = (   0.4545686   0.5555839   0.0505076), wk =   0.0058309
        k(  171) = (   0.4545686  -0.5555839  -0.0505076), wk =   0.0058309
        k(  172) = (  -0.3535534   0.0505076  -0.4545686), wk =   0.0058309
        k(  173) = (   0.3535534  -0.0505076  -0.4545686), wk =   0.0058309
        k(  174) = (   0.0505076   0.3535534  -0.4545686), wk =   0.0058309
        k(  175) = (  -0.0505076  -0.3535534  -0.4545686), wk =   0.0058309
        k(  176) = (   0.0505076  -0.3535534   0.4545686), wk =   0.0058309
        k(  177) = (  -0.0505076   0.3535534   0.4545686), wk =   0.0058309
        k(  178) = (   0.4545686   0.0505076  -0.3535534), wk =   0.0058309
        k(  179) = (  -0.3535534   0.4545686   0.0505076), wk =   0.0058309
        k(  180) = (  -0.3535534  -0.4545686  -0.0505076), wk =   0.0058309
        k(  181) = (   0.3535534   0.4545686  -0.0505076), wk =   0.0058309
        k(  182) = (   0.3535534  -0.4545686   0.0505076), wk =   0.0058309
        k(  183) = (  -0.2525381   0.1515229  -0.3535534), wk =   0.0058309
        k(  184) = (   0.2525381  -0.1515229  -0.3535534), wk =   0.0058309
        k(  185) = (   0.1515229   0.2525381  -0.3535534), wk =   0.0058309
        k(  186) = (  -0.1515229  -0.2525381  -0.3535534), wk =   0.0058309
        k(  187) = (   0.1515229  -0.2525381   0.3535534), wk =   0.0058309
        k(  188) = (  -0.1515229   0.2525381   0.3535534), wk =   0.0058309
        k(  189) = (   0.3535534   0.1515229  -0.2525381), wk =   0.0058309
        k(  190) = (  -0.2525381   0.3535534   0.1515229), wk =   0.0058309
        k(  191) = (  -0.2525381  -0.3535534  -0.1515229), wk =   0.0058309
        k(  192) = (   0.2525381   0.3535534  -0.1515229), wk =   0.0058309
        k(  193) = (   0.2525381  -0.3535534   0.1515229), wk =   0.0058309
        k(  194) = (   0.0505076  -0.7576144  -0.0505076), wk =   0.0029155
        k(  195) = (  -0.0505076   0.7576144  -0.0505076), wk =   0.0058309
        k(  196) = (  -0.7576144  -0.0505076  -0.0505076), wk =   0.0058309
        k(  197) = (   0.7576144   0.0505076  -0.0505076), wk =   0.0058309
        k(  198) = (  -0.7576144   0.0505076   0.0505076), wk =   0.0058309
        k(  199) = (   0.7576144  -0.0505076   0.0505076), wk =   0.0058309
        k(  200) = (   0.1515229  -0.6565992   0.0505076), wk =   0.0058309
        k(  201) = (  -0.1515229   0.6565992   0.0505076), wk =   0.0058309
        k(  202) = (  -0.6565992  -0.1515229   0.0505076), wk =   0.0058309
        k(  203) = (   0.6565992   0.1515229   0.0505076), wk =   0.0058309
        k(  204) = (  -0.6565992   0.1515229  -0.0505076), wk =   0.0058309
        k(  205) = (   0.6565992  -0.1515229  -0.0505076), wk =   0.0058309
        k(  206) = (  -0.0505076  -0.6565992   0.1515229), wk =   0.0058309
        k(  207) = (   0.1515229  -0.0505076  -0.6565992), wk =   0.0058309
        k(  208) = (   0.1515229   0.0505076   0.6565992), wk =   0.0058309
        k(  209) = (  -0.1515229  -0.0505076   0.6565992), wk =   0.0058309
        k(  210) = (  -0.1515229   0.0505076  -0.6565992), wk =   0.0058309
        k(  211) = (   0.2525381  -0.5555839   0.1515229), wk =   0.0058309
        k(  212) = (  -0.2525381   0.5555839   0.1515229), wk =   0.0058309
        k(  213) = (  -0.5555839  -0.2525381   0.1515229), wk =   0.0058309
        k(  214) = (   0.5555839   0.2525381   0.1515229), wk =   0.0058309
        k(  215) = (  -0.5555839   0.2525381  -0.1515229), wk =   0.0058309
        k(  216) = (   0.5555839  -0.2525381  -0.1515229), wk =   0.0058309
        k(  217) = (  -0.1515229  -0.5555839   0.2525381), wk =   0.0058309
        k(  218) = (   0.2525381  -0.1515229  -0.5555839), wk =   0.0058309
        k(  219) = (   0.2525381   0.1515229   0.5555839), wk =   0.0058309
        k(  220) = (  -0.2525381  -0.1515229   0.5555839), wk =   0.0058309
        k(  221) = (  -0.2525381   0.1515229  -0.5555839), wk =   0.0058309
        k(  222) = (   0.3535534  -0.4545686   0.2525381), wk =   0.0058309
        k(  223) = (  -0.3535534   0.4545686   0.2525381), wk =   0.0058309
        k(  224) = (  -0.4545686  -0.3535534   0.2525381), wk =   0.0029155
        k(  225) = (   0.4545686   0.3535534   0.2525381), wk =   0.0058309
        k(  226) = (   0.4545686  -0.3535534  -0.2525381), wk =   0.0029155
        k(  227) = (  -0.2525381  -0.4545686   0.3535534), wk =   0.0058309
        k(  228) = (   0.0505076  -0.5555839  -0.0505076), wk =   0.0029155
        k(  229) = (  -0.0505076   0.5555839  -0.0505076), wk =   0.0058309
        k(  230) = (  -0.5555839  -0.0505076  -0.0505076), wk =   0.0058309
        k(  231) = (   0.5555839   0.0505076  -0.0505076), wk =   0.0058309
        k(  232) = (  -0.5555839   0.0505076   0.0505076), wk =   0.0058309
        k(  233) = (   0.5555839  -0.0505076   0.0505076), wk =   0.0058309
        k(  234) = (   0.1515229  -0.4545686   0.0505076), wk =   0.0058309
        k(  235) = (  -0.1515229   0.4545686   0.0505076), wk =   0.0058309
        k(  236) = (  -0.4545686  -0.1515229   0.0505076), wk =   0.0058309
        k(  237) = (   0.4545686   0.1515229   0.0505076), wk =   0.0058309
        k(  238) = (  -0.4545686   0.1515229  -0.0505076), wk =   0.0058309
        k(  239) = (   0.4545686  -0.1515229  -0.0505076), wk =   0.0058309
        k(  240) = (  -0.0505076  -0.4545686   0.1515229), wk =   0.0058309
        k(  241) = (   0.1515229  -0.0505076  -0.4545686), wk =   0.0058309
        k(  242) = (   0.1515229   0.0505076   0.4545686), wk =   0.0058309
        k(  243) = (  -0.1515229  -0.0505076   0.4545686), wk =   0.0058309
        k(  244) = (  -0.1515229   0.0505076  -0.4545686), wk =   0.0058309
        k(  245) = (   0.0505076  -0.3535534  -0.0505076), wk =   0.0029155
        k(  246) = (  -0.0505076   0.3535534  -0.0505076), wk =   0.0058309
        k(  247) = (  -0.3535534  -0.0505076  -0.0505076), wk =   0.0058309
        k(  248) = (   0.3535534   0.0505076  -0.0505076), wk =   0.0058309
        k(  249) = (  -0.3535534   0.0505076   0.0505076), wk =   0.0058309
        k(  250) = (   0.3535534  -0.0505076   0.0505076), wk =   0.0058309
        k(  251) = (   0.1515229   0.1515229  -0.1515229), wk =   0.0029155
        k(  252) = (  -0.1515229  -0.1515229  -0.1515229), wk =   0.0058309
        k(  253) = (   0.2525381   0.2525381  -0.0505076), wk =   0.0058309
        k(  254) = (  -0.2525381  -0.2525381  -0.0505076), wk =   0.0058309
        k(  255) = (  -0.2525381   0.2525381  -0.0505076), wk =   0.0058309
        k(  256) = (   0.2525381   0.0505076   0.2525381), wk =   0.0058309
        k(  257) = (   0.2525381  -0.0505076  -0.2525381), wk =   0.0029155
        k(  258) = (  -0.2525381  -0.0505076   0.2525381), wk =   0.0029155
        k(  259) = (  -0.3535534  -0.3535534  -0.6565992), wk =   0.0058309
        k(  260) = (   0.3535534   0.3535534  -0.6565992), wk =   0.0058309
        k(  261) = (   0.3535534  -0.3535534  -0.6565992), wk =   0.0058309
        k(  262) = (  -0.3535534   0.6565992  -0.3535534), wk =   0.0058309
        k(  263) = (  -0.3535534  -0.6565992   0.3535534), wk =   0.0029155
        k(  264) = (   0.3535534  -0.6565992  -0.3535534), wk =   0.0029155
        k(  265) = (  -0.2525381  -0.2525381  -0.5555839), wk =   0.0058309
        k(  266) = (   0.2525381   0.2525381  -0.5555839), wk =   0.0058309
        k(  267) = (   0.2525381  -0.2525381  -0.5555839), wk =   0.0058309
        k(  268) = (  -0.2525381   0.5555839  -0.2525381), wk =   0.0058309
        k(  269) = (  -0.2525381  -0.5555839   0.2525381), wk =   0.0029155
        k(  270) = (   0.2525381  -0.5555839  -0.2525381), wk =   0.0029155
        k(  271) = (  -0.1515229  -0.1515229  -0.4545686), wk =   0.0058309
        k(  272) = (   0.1515229   0.1515229  -0.4545686), wk =   0.0058309
        k(  273) = (   0.1515229  -0.1515229  -0.4545686), wk =   0.0058309
        k(  274) = (  -0.1515229   0.4545686  -0.1515229), wk =   0.0058309
        k(  275) = (  -0.1515229  -0.4545686   0.1515229), wk =   0.0029155
        k(  276) = (   0.1515229  -0.4545686  -0.1515229), wk =   0.0029155
        k(  277) = (   0.1515229   0.3535534  -0.1515229), wk =   0.0029155
        k(  278) = (  -0.1515229  -0.3535534  -0.1515229), wk =   0.0058309
        k(  279) = (   0.3535534  -0.1515229  -0.1515229), wk =   0.0058309
        k(  280) = (  -0.3535534   0.1515229  -0.1515229), wk =   0.0058309
        k(  281) = (   0.3535534   0.1515229   0.1515229), wk =   0.0058309
        k(  282) = (  -0.3535534  -0.1515229   0.1515229), wk =   0.0058309
        k(  283) = (  -0.4545686  -0.2525381  -0.7576144), wk =   0.0058309
        k(  284) = (   0.4545686   0.2525381  -0.7576144), wk =   0.0058309
        k(  285) = (  -0.2525381   0.4545686  -0.7576144), wk =   0.0058309
        k(  286) = (   0.2525381  -0.4545686  -0.7576144), wk =   0.0058309
        k(  287) = (  -0.2525381  -0.4545686   0.7576144), wk =   0.0058309
        k(  288) = (   0.2525381   0.4545686   0.7576144), wk =   0.0058309
        k(  289) = (   0.7576144  -0.2525381  -0.4545686), wk =   0.0058309
        k(  290) = (  -0.4545686   0.7576144  -0.2525381), wk =   0.0058309
        k(  291) = (  -0.4545686  -0.7576144   0.2525381), wk =   0.0058309
        k(  292) = (   0.4545686   0.7576144   0.2525381), wk =   0.0058309
        k(  293) = (   0.4545686  -0.7576144  -0.2525381), wk =   0.0058309
        k(  294) = (  -0.3535534  -0.1515229  -0.6565992), wk =   0.0058309
        k(  295) = (   0.3535534   0.1515229  -0.6565992), wk =   0.0058309
        k(  296) = (  -0.1515229   0.3535534  -0.6565992), wk =   0.0058309
        k(  297) = (   0.1515229  -0.3535534  -0.6565992), wk =   0.0058309
        k(  298) = (  -0.1515229  -0.3535534   0.6565992), wk =   0.0058309
        k(  299) = (   0.1515229   0.3535534   0.6565992), wk =   0.0058309
        k(  300) = (   0.6565992  -0.1515229  -0.3535534), wk =   0.0058309
        k(  301) = (  -0.3535534   0.6565992  -0.1515229), wk =   0.0058309
        k(  302) = (  -0.3535534  -0.6565992   0.1515229), wk =   0.0058309
        k(  303) = (   0.3535534   0.6565992   0.1515229), wk =   0.0058309
        k(  304) = (   0.3535534  -0.6565992  -0.1515229), wk =   0.0058309
        k(  305) = (  -0.2525381  -0.0505076  -0.5555839), wk =   0.0058309
        k(  306) = (   0.2525381   0.0505076  -0.5555839), wk =   0.0058309
        k(  307) = (  -0.0505076   0.2525381  -0.5555839), wk =   0.0058309
        k(  308) = (   0.0505076  -0.2525381  -0.5555839), wk =   0.0058309
        k(  309) = (  -0.0505076  -0.2525381   0.5555839), wk =   0.0058309
        k(  310) = (   0.0505076   0.2525381   0.5555839), wk =   0.0058309
        k(  311) = (   0.5555839  -0.0505076  -0.2525381), wk =   0.0058309
        k(  312) = (  -0.2525381   0.5555839  -0.0505076), wk =   0.0058309
        k(  313) = (  -0.2525381  -0.5555839   0.0505076), wk =   0.0058309
        k(  314) = (   0.2525381   0.5555839   0.0505076), wk =   0.0058309
        k(  315) = (   0.2525381  -0.5555839  -0.0505076), wk =   0.0058309
        k(  316) = (   0.1515229  -0.8586297  -0.1515229), wk =   0.0029155
        k(  317) = (  -0.1515229   0.8586297  -0.1515229), wk =   0.0058309
        k(  318) = (  -0.8586297  -0.1515229  -0.1515229), wk =   0.0058309
        k(  319) = (   0.8586297   0.1515229  -0.1515229), wk =   0.0058309
        k(  320) = (  -0.8586297   0.1515229   0.1515229), wk =   0.0058309
        k(  321) = (   0.8586297  -0.1515229   0.1515229), wk =   0.0058309
        k(  322) = (   0.2525381  -0.7576144  -0.0505076), wk =   0.0058309
        k(  323) = (  -0.2525381   0.7576144  -0.0505076), wk =   0.0058309
        k(  324) = (  -0.7576144  -0.2525381  -0.0505076), wk =   0.0058309
        k(  325) = (   0.7576144   0.2525381  -0.0505076), wk =   0.0058309
        k(  326) = (  -0.7576144   0.2525381   0.0505076), wk =   0.0058309
        k(  327) = (   0.7576144  -0.2525381   0.0505076), wk =   0.0058309
        k(  328) = (   0.0505076  -0.7576144   0.2525381), wk =   0.0058309
        k(  329) = (   0.2525381   0.0505076  -0.7576144), wk =   0.0058309
        k(  330) = (   0.2525381  -0.0505076   0.7576144), wk =   0.0058309
        k(  331) = (  -0.2525381   0.0505076   0.7576144), wk =   0.0058309
        k(  332) = (  -0.2525381  -0.0505076  -0.7576144), wk =   0.0058309
        k(  333) = (   0.3535534  -0.6565992   0.0505076), wk =   0.0058309
        k(  334) = (  -0.3535534   0.6565992   0.0505076), wk =   0.0058309
        k(  335) = (  -0.6565992  -0.3535534   0.0505076), wk =   0.0029155
        k(  336) = (   0.6565992   0.3535534   0.0505076), wk =   0.0058309
        k(  337) = (   0.6565992  -0.3535534  -0.0505076), wk =   0.0029155
        k(  338) = (  -0.0505076  -0.6565992   0.3535534), wk =   0.0058309
        k(  339) = (   0.1515229  -0.6565992  -0.1515229), wk =   0.0029155
        k(  340) = (  -0.1515229   0.6565992  -0.1515229), wk =   0.0058309
        k(  341) = (  -0.6565992  -0.1515229  -0.1515229), wk =   0.0058309
        k(  342) = (   0.6565992   0.1515229  -0.1515229), wk =   0.0058309
        k(  343) = (  -0.6565992   0.1515229   0.1515229), wk =   0.0058309
        k(  344) = (   0.6565992  -0.1515229   0.1515229), wk =   0.0058309
        k(  345) = (   0.2525381   0.2525381  -0.2525381), wk =   0.0029155
        k(  346) = (  -0.2525381  -0.2525381  -0.2525381), wk =   0.0058309
        k(  347) = (  -0.3535534  -0.3535534  -0.8586297), wk =   0.0058309
        k(  348) = (   0.3535534   0.3535534  -0.8586297), wk =   0.0058309
        k(  349) = (   0.3535534  -0.3535534  -0.8586297), wk =   0.0058309
        k(  350) = (  -0.3535534   0.8586297  -0.3535534), wk =   0.0058309
        k(  351) = (  -0.3535534  -0.8586297   0.3535534), wk =   0.0029155
        k(  352) = (   0.3535534  -0.8586297  -0.3535534), wk =   0.0029155
        k(  353) = (  -0.2525381  -0.2525381  -0.7576144), wk =   0.0058309
        k(  354) = (   0.2525381   0.2525381  -0.7576144), wk =   0.0058309
        k(  355) = (   0.2525381  -0.2525381  -0.7576144), wk =   0.0058309
        k(  356) = (  -0.2525381   0.7576144  -0.2525381), wk =   0.0058309
        k(  357) = (  -0.2525381  -0.7576144   0.2525381), wk =   0.0029155
        k(  358) = (   0.2525381  -0.7576144  -0.2525381), wk =   0.0029155
        k(  359) = (   0.2525381  -0.9596449  -0.2525381), wk =   0.0029155
        k(  360) = (  -0.2525381   0.9596449  -0.2525381), wk =   0.0058309
        k(  361) = (  -0.9596449  -0.2525381  -0.2525381), wk =   0.0058309
        k(  362) = (   0.9596449   0.2525381  -0.2525381), wk =   0.0058309
        k(  363) = (  -0.9596449   0.2525381   0.2525381), wk =   0.0058309
        k(  364) = (   0.9596449  -0.2525381   0.2525381), wk =   0.0058309
        k(  365) = (   0.3535534  -0.8586297  -0.1515229), wk =   0.0058309
        k(  366) = (  -0.3535534   0.8586297  -0.1515229), wk =   0.0058309
        k(  367) = (  -0.8586297  -0.3535534  -0.1515229), wk =   0.0029155
        k(  368) = (   0.8586297   0.3535534  -0.1515229), wk =   0.0058309
        k(  369) = (   0.8586297  -0.3535534   0.1515229), wk =   0.0029155
        k(  370) = (   0.1515229  -0.8586297   0.3535534), wk =   0.0058309
        k(  371) = (  -0.3535534  -0.3535534   0.3535534), wk =   0.0014577
        k(  372) = (   0.3535534   0.3535534   0.3535534), wk =   0.0029155

                       cryst. coord.
        k(    1) = (   0.0714286   0.0714286   0.0714286), wk =   0.0029155
        k(    2) = (   0.0714286   0.0714286   0.2142857), wk =   0.0058309
        k(    3) = (   0.0714286   0.0714286   0.3571429), wk =   0.0058309
        k(    4) = (   0.0714286   0.0714286  -0.5000000), wk =   0.0058309
        k(    5) = (   0.0714286   0.0714286  -0.3571429), wk =   0.0058309
        k(    6) = (   0.0714286   0.0714286  -0.2142857), wk =   0.0058309
        k(    7) = (   0.0714286   0.0714286  -0.0714286), wk =   0.0058309
        k(    8) = (   0.0714286   0.2142857   0.2142857), wk =   0.0029155
        k(    9) = (   0.0714286   0.2142857   0.3571429), wk =   0.0058309
        k(   10) = (   0.0714286   0.2142857  -0.5000000), wk =   0.0058309
        k(   11) = (   0.0714286   0.2142857  -0.3571429), wk =   0.0058309
        k(   12) = (   0.0714286   0.2142857  -0.2142857), wk =   0.0058309
        k(   13) = (   0.0714286   0.2142857  -0.0714286), wk =   0.0058309
        k(   14) = (   0.0714286   0.3571429   0.3571429), wk =   0.0029155
        k(   15) = (   0.0714286   0.3571429  -0.5000000), wk =   0.0058309
        k(   16) = (   0.0714286   0.3571429  -0.3571429), wk =   0.0058309
        k(   17) = (   0.0714286   0.3571429  -0.2142857), wk =   0.0058309
        k(   18) = (   0.0714286   0.3571429  -0.0714286), wk =   0.0058309
        k(   19) = (   0.0714286  -0.5000000  -0.5000000), wk =   0.0029155
        k(   20) = (   0.0714286  -0.5000000  -0.3571429), wk =   0.0058309
        k(   21) = (   0.0714286  -0.5000000  -0.2142857), wk =   0.0058309
        k(   22) = (   0.0714286  -0.5000000  -0.0714286), wk =   0.0058309
        k(   23) = (   0.0714286  -0.3571429  -0.3571429), wk =   0.0029155
        k(   24) = (   0.0714286  -0.3571429  -0.2142857), wk =   0.0058309
        k(   25) = (   0.0714286  -0.2142857  -0.2142857), wk =   0.0029155
        k(   26) = (   0.2142857   0.2142857   0.2142857), wk =   0.0029155
        k(   27) = (   0.2142857   0.2142857   0.3571429), wk =   0.0058309
        k(   28) = (   0.2142857   0.2142857  -0.5000000), wk =   0.0058309
        k(   29) = (   0.2142857   0.2142857  -0.3571429), wk =   0.0058309
        k(   30) = (   0.2142857   0.2142857  -0.2142857), wk =   0.0058309
        k(   31) = (   0.2142857   0.3571429   0.3571429), wk =   0.0029155
        k(   32) = (   0.2142857   0.3571429  -0.5000000), wk =   0.0058309
        k(   33) = (   0.2142857   0.3571429  -0.3571429), wk =   0.0058309
        k(   34) = (   0.2142857   0.3571429  -0.2142857), wk =   0.0058309
        k(   35) = (   0.2142857  -0.5000000  -0.5000000), wk =   0.0029155
        k(   36) = (   0.2142857  -0.5000000  -0.3571429), wk =   0.0058309
        k(   37) = (   0.2142857  -0.5000000  -0.2142857), wk =   0.0058309
        k(   38) = (   0.2142857  -0.3571429  -0.3571429), wk =   0.0029155
        k(   39) = (   0.3571429   0.3571429   0.3571429), wk =   0.0029155
        k(   40) = (   0.3571429   0.3571429  -0.5000000), wk =   0.0058309
        k(   41) = (   0.3571429   0.3571429  -0.3571429), wk =   0.0058309
        k(   42) = (   0.3571429  -0.5000000  -0.5000000), wk =   0.0029155
        k(   43) = (   0.3571429  -0.5000000  -0.3571429), wk =   0.0058309
        k(   44) = (  -0.5000000  -0.5000000  -0.5000000), wk =   0.0014577
        k(   45) = (  -0.0714286   0.0000000   0.0000000), wk =   0.0029155
        k(   46) = (   0.0000000  -0.0714286  -0.0000000), wk =   0.0058309
        k(   47) = (  -0.0714286   0.1428571  -0.0000000), wk =   0.0058309
        k(   48) = (   0.1428571  -0.0714286   0.0000000), wk =   0.0058309
        k(   49) = (   0.1428571   0.1428571   0.2142857), wk =   0.0058309
        k(   50) = (   0.0000000   0.0714286  -0.1428571), wk =   0.0058309
        k(   51) = (  -0.2142857  -0.0714286  -0.0714286), wk =   0.0029155
        k(   52) = (   0.2142857   0.1428571   0.1428571), wk =   0.0029155
        k(   53) = (  -0.0714286   0.2857143   0.0000000), wk =   0.0058309
        k(   54) = (   0.2857143  -0.0714286  -0.0000000), wk =   0.0058309
        k(   55) = (   0.2857143   0.2857143   0.3571429), wk =   0.0058309
        k(   56) = (  -0.0000000   0.0714286  -0.2857143), wk =   0.0058309
        k(   57) = (  -0.3571429  -0.0714286  -0.0714286), wk =   0.0029155
        k(   58) = (   0.3571429   0.2857143   0.2857143), wk =   0.0029155
        k(   59) = (  -0.0714286  -0.5714286   0.0000000), wk =   0.0058309
        k(   60) = (  -0.5714286  -0.0714286  -0.0000000), wk =   0.0058309
        k(   61) = (  -0.5714286  -0.5714286  -0.5000000), wk =   0.0058309
        k(   62) = (  -0.0000000   0.0714286   0.5714286), wk =   0.0058309
        k(   63) = (   0.5000000  -0.0714286  -0.0714286), wk =   0.0029155
        k(   64) = (  -0.5000000  -0.5714286  -0.5714286), wk =   0.0029155
        k(   65) = (  -0.0714286  -0.4285714  -0.0000000), wk =   0.0058309
        k(   66) = (  -0.4285714  -0.0714286   0.0000000), wk =   0.0058309
        k(   67) = (  -0.4285714  -0.4285714  -0.3571429), wk =   0.0058309
        k(   68) = (   0.0000000   0.0714286   0.4285714), wk =   0.0058309
        k(   69) = (   0.3571429  -0.0714286  -0.0714286), wk =   0.0029155
        k(   70) = (  -0.3571429  -0.4285714  -0.4285714), wk =   0.0029155
        k(   71) = (  -0.0714286  -0.2857143   0.0000000), wk =   0.0058309
        k(   72) = (  -0.2857143  -0.0714286  -0.0000000), wk =   0.0058309
        k(   73) = (  -0.2857143  -0.2857143  -0.2142857), wk =   0.0058309
        k(   74) = (   0.0000000   0.0714286   0.2857143), wk =   0.0058309
        k(   75) = (   0.2142857  -0.0714286  -0.0714286), wk =   0.0029155
        k(   76) = (  -0.2142857  -0.2857143  -0.2857143), wk =   0.0029155
        k(   77) = (  -0.0714286  -0.1428571   0.0000000), wk =   0.0058309
        k(   78) = (  -0.1428571  -0.0714286  -0.0000000), wk =   0.0058309
        k(   79) = (  -0.1428571  -0.1428571  -0.0714286), wk =   0.0058309
        k(   80) = (  -0.0000000   0.0714286   0.1428571), wk =   0.0058309
        k(   81) = (   0.0714286  -0.0714286  -0.0714286), wk =   0.0029155
        k(   82) = (  -0.0714286  -0.1428571  -0.1428571), wk =   0.0029155
        k(   83) = (  -0.0714286   0.1428571   0.1428571), wk =   0.0029155
        k(   84) = (  -0.0000000  -0.2142857  -0.1428571), wk =   0.0058309
        k(   85) = (  -0.2142857  -0.0714286  -0.2142857), wk =   0.0058309
        k(   86) = (   0.1428571   0.0000000   0.2142857), wk =   0.0058309
        k(   87) = (  -0.1428571   0.0714286  -0.1428571), wk =   0.0058309
        k(   88) = (   0.2142857   0.0000000   0.1428571), wk =   0.0058309
        k(   89) = (  -0.0714286   0.2857143   0.1428571), wk =   0.0058309
        k(   90) = (   0.1428571  -0.2142857  -0.1428571), wk =   0.0058309
        k(   91) = (  -0.2142857  -0.0714286  -0.3571429), wk =   0.0058309
        k(   92) = (   0.2857143   0.1428571   0.3571429), wk =   0.0058309
        k(   93) = (  -0.2857143   0.0714286  -0.1428571), wk =   0.0058309
        k(   94) = (   0.2142857  -0.1428571   0.1428571), wk =   0.0058309
        k(   95) = (   0.1428571   0.3571429   0.2857143), wk =   0.0058309
        k(   96) = (   0.1428571   0.2142857  -0.1428571), wk =   0.0058309
        k(   97) = (  -0.3571429  -0.2142857  -0.0714286), wk =   0.0058309
        k(   98) = (  -0.1428571  -0.2857143   0.0714286), wk =   0.0058309
        k(   99) = (   0.3571429   0.2857143   0.1428571), wk =   0.0058309
        k(  100) = (  -0.0714286  -0.5714286   0.1428571), wk =   0.0058309
        k(  101) = (  -0.7142857  -0.2142857  -0.1428571), wk =   0.0058309
        k(  102) = (  -0.2142857  -0.0714286   0.5000000), wk =   0.0058309
        k(  103) = (  -0.5714286  -0.7142857  -0.5000000), wk =   0.0058309
        k(  104) = (   0.5714286   0.0714286  -0.1428571), wk =   0.0058309
        k(  105) = (   0.2142857   0.7142857   0.1428571), wk =   0.0058309
        k(  106) = (  -0.7142857  -0.5000000  -0.5714286), wk =   0.0058309
        k(  107) = (   0.1428571   0.2142857   0.7142857), wk =   0.0058309
        k(  108) = (   0.5000000  -0.2142857  -0.0714286), wk =   0.0058309
        k(  109) = (  -0.1428571   0.5714286   0.0714286), wk =   0.0058309
        k(  110) = (  -0.5000000  -0.5714286  -0.7142857), wk =   0.0058309
        k(  111) = (  -0.0714286  -0.4285714   0.1428571), wk =   0.0058309
        k(  112) = (  -0.5714286  -0.2142857  -0.1428571), wk =   0.0058309
        k(  113) = (  -0.2142857  -0.0714286   0.3571429), wk =   0.0058309
        k(  114) = (  -0.4285714  -0.5714286  -0.3571429), wk =   0.0058309
        k(  115) = (   0.4285714   0.0714286  -0.1428571), wk =   0.0058309
        k(  116) = (   0.2142857   0.5714286   0.1428571), wk =   0.0058309
        k(  117) = (  -0.5714286  -0.3571429  -0.4285714), wk =   0.0058309
        k(  118) = (   0.1428571   0.2142857   0.5714286), wk =   0.0058309
        k(  119) = (   0.3571429  -0.2142857  -0.0714286), wk =   0.0058309
        k(  120) = (  -0.1428571   0.4285714   0.0714286), wk =   0.0058309
        k(  121) = (  -0.3571429  -0.4285714  -0.5714286), wk =   0.0058309
        k(  122) = (  -0.0714286  -0.2857143   0.1428571), wk =   0.0058309
        k(  123) = (  -0.4285714  -0.2142857  -0.1428571), wk =   0.0058309
        k(  124) = (  -0.2142857  -0.0714286   0.2142857), wk =   0.0058309
        k(  125) = (  -0.2857143  -0.4285714  -0.2142857), wk =   0.0058309
        k(  126) = (   0.2857143   0.0714286  -0.1428571), wk =   0.0058309
        k(  127) = (   0.2142857   0.4285714   0.1428571), wk =   0.0058309
        k(  128) = (  -0.4285714  -0.2142857  -0.2857143), wk =   0.0058309
        k(  129) = (   0.1428571   0.2142857   0.4285714), wk =   0.0058309
        k(  130) = (   0.2142857  -0.2142857  -0.0714286), wk =   0.0058309
        k(  131) = (  -0.1428571   0.2857143   0.0714286), wk =   0.0058309
        k(  132) = (  -0.2142857  -0.2857143  -0.4285714), wk =   0.0058309
        k(  133) = (  -0.0714286  -0.1428571   0.1428571), wk =   0.0058309
        k(  134) = (  -0.2857143  -0.2142857  -0.1428571), wk =   0.0058309
        k(  135) = (  -0.2142857  -0.0714286   0.0714286), wk =   0.0058309
        k(  136) = (  -0.1428571  -0.2857143  -0.0714286), wk =   0.0058309
        k(  137) = (   0.1428571   0.0714286  -0.1428571), wk =   0.0058309
        k(  138) = (   0.2142857   0.2857143   0.1428571), wk =   0.0058309
        k(  139) = (  -0.2857143  -0.0714286  -0.1428571), wk =   0.0058309
        k(  140) = (   0.1428571   0.2142857   0.2857143), wk =   0.0058309
        k(  141) = (   0.0714286  -0.2142857  -0.0714286), wk =   0.0058309
        k(  142) = (  -0.1428571   0.1428571   0.0714286), wk =   0.0058309
        k(  143) = (  -0.0714286  -0.1428571  -0.2857143), wk =   0.0058309
        k(  144) = (  -0.0714286   0.2857143   0.2857143), wk =   0.0029155
        k(  145) = (   0.0000000  -0.3571429  -0.2857143), wk =   0.0058309
        k(  146) = (  -0.3571429  -0.0714286  -0.3571429), wk =   0.0058309
        k(  147) = (   0.2857143   0.0000000   0.3571429), wk =   0.0058309
        k(  148) = (  -0.2857143   0.0714286  -0.2857143), wk =   0.0058309
        k(  149) = (   0.3571429  -0.0000000   0.2857143), wk =   0.0058309
        k(  150) = (  -0.0714286  -0.5714286   0.2857143), wk =   0.0058309
        k(  151) = (  -0.8571429  -0.3571429  -0.2857143), wk =   0.0058309
        k(  152) = (  -0.3571429  -0.0714286   0.5000000), wk =   0.0058309
        k(  153) = (  -0.5714286  -0.8571429  -0.5000000), wk =   0.0058309
        k(  154) = (   0.5714286   0.0714286  -0.2857143), wk =   0.0058309
        k(  155) = (   0.3571429   0.8571429   0.2857143), wk =   0.0058309
        k(  156) = (  -0.8571429  -0.5000000  -0.5714286), wk =   0.0058309
        k(  157) = (   0.2857143   0.3571429   0.8571429), wk =   0.0058309
        k(  158) = (   0.5000000  -0.3571429  -0.0714286), wk =   0.0058309
        k(  159) = (  -0.2857143   0.5714286   0.0714286), wk =   0.0058309
        k(  160) = (  -0.5000000  -0.5714286  -0.8571429), wk =   0.0058309
        k(  161) = (  -0.0714286  -0.4285714   0.2857143), wk =   0.0058309
        k(  162) = (  -0.7142857  -0.3571429  -0.2857143), wk =   0.0058309
        k(  163) = (  -0.3571429  -0.0714286   0.3571429), wk =   0.0058309
        k(  164) = (  -0.4285714  -0.7142857  -0.3571429), wk =   0.0058309
        k(  165) = (   0.4285714   0.0714286  -0.2857143), wk =   0.0058309
        k(  166) = (   0.3571429   0.7142857   0.2857143), wk =   0.0058309
        k(  167) = (  -0.7142857  -0.3571429  -0.4285714), wk =   0.0058309
        k(  168) = (   0.2857143   0.3571429   0.7142857), wk =   0.0058309
        k(  169) = (   0.3571429  -0.3571429  -0.0714286), wk =   0.0058309
        k(  170) = (  -0.2857143   0.4285714   0.0714286), wk =   0.0058309
        k(  171) = (  -0.3571429  -0.4285714  -0.7142857), wk =   0.0058309
        k(  172) = (  -0.0714286  -0.2857143   0.2857143), wk =   0.0058309
        k(  173) = (  -0.5714286  -0.3571429  -0.2857143), wk =   0.0058309
        k(  174) = (  -0.3571429  -0.0714286   0.2142857), wk =   0.0058309
        k(  175) = (  -0.2857143  -0.5714286  -0.2142857), wk =   0.0058309
        k(  176) = (   0.2857143   0.0714286  -0.2857143), wk =   0.0058309
        k(  177) = (   0.3571429   0.5714286   0.2857143), wk =   0.0058309
        k(  178) = (  -0.5714286  -0.2142857  -0.2857143), wk =   0.0058309
        k(  179) = (   0.2857143   0.3571429   0.5714286), wk =   0.0058309
        k(  180) = (   0.2142857  -0.3571429  -0.0714286), wk =   0.0058309
        k(  181) = (  -0.2857143   0.2857143   0.0714286), wk =   0.0058309
        k(  182) = (  -0.2142857  -0.2857143  -0.5714286), wk =   0.0058309
        k(  183) = (  -0.0714286  -0.1428571   0.2857143), wk =   0.0058309
        k(  184) = (  -0.4285714  -0.3571429  -0.2857143), wk =   0.0058309
        k(  185) = (  -0.3571429  -0.0714286   0.0714286), wk =   0.0058309
        k(  186) = (  -0.1428571  -0.4285714  -0.0714286), wk =   0.0058309
        k(  187) = (   0.1428571   0.0714286  -0.2857143), wk =   0.0058309
        k(  188) = (   0.3571429   0.4285714   0.2857143), wk =   0.0058309
        k(  189) = (  -0.4285714  -0.0714286  -0.1428571), wk =   0.0058309
        k(  190) = (   0.2857143   0.3571429   0.4285714), wk =   0.0058309
        k(  191) = (   0.0714286  -0.3571429  -0.0714286), wk =   0.0058309
        k(  192) = (  -0.2857143   0.1428571   0.0714286), wk =   0.0058309
        k(  193) = (  -0.0714286  -0.1428571  -0.4285714), wk =   0.0058309
        k(  194) = (  -0.0714286  -0.5714286  -0.5714286), wk =   0.0029155
        k(  195) = (   0.0000000   0.5000000   0.5714286), wk =   0.0058309
        k(  196) = (   0.5000000  -0.0714286   0.5000000), wk =   0.0058309
        k(  197) = (  -0.5714286   0.0000000  -0.5000000), wk =   0.0058309
        k(  198) = (   0.5714286   0.0714286   0.5714286), wk =   0.0058309
        k(  199) = (  -0.5000000  -0.0000000  -0.5714286), wk =   0.0058309
        k(  200) = (  -0.0714286  -0.4285714  -0.5714286), wk =   0.0058309
        k(  201) = (   0.1428571   0.5000000   0.5714286), wk =   0.0058309
        k(  202) = (   0.5000000  -0.0714286   0.3571429), wk =   0.0058309
        k(  203) = (  -0.4285714   0.1428571  -0.3571429), wk =   0.0058309
        k(  204) = (   0.4285714   0.0714286   0.5714286), wk =   0.0058309
        k(  205) = (  -0.5000000  -0.1428571  -0.5714286), wk =   0.0058309
        k(  206) = (   0.1428571  -0.3571429  -0.4285714), wk =   0.0058309
        k(  207) = (  -0.5714286  -0.5000000  -0.1428571), wk =   0.0058309
        k(  208) = (   0.3571429   0.5000000  -0.0714286), wk =   0.0058309
        k(  209) = (   0.5714286   0.4285714   0.0714286), wk =   0.0058309
        k(  210) = (  -0.3571429  -0.4285714   0.1428571), wk =   0.0058309
        k(  211) = (  -0.0714286  -0.2857143  -0.5714286), wk =   0.0058309
        k(  212) = (   0.2857143   0.5000000   0.5714286), wk =   0.0058309
        k(  213) = (   0.5000000  -0.0714286   0.2142857), wk =   0.0058309
        k(  214) = (  -0.2857143   0.2857143  -0.2142857), wk =   0.0058309
        k(  215) = (   0.2857143   0.0714286   0.5714286), wk =   0.0058309
        k(  216) = (  -0.5000000  -0.2857143  -0.5714286), wk =   0.0058309
        k(  217) = (   0.2857143  -0.2142857  -0.2857143), wk =   0.0058309
        k(  218) = (  -0.5714286  -0.5000000  -0.2857143), wk =   0.0058309
        k(  219) = (   0.2142857   0.5000000  -0.0714286), wk =   0.0058309
        k(  220) = (   0.5714286   0.2857143   0.0714286), wk =   0.0058309
        k(  221) = (  -0.2142857  -0.2857143   0.2857143), wk =   0.0058309
        k(  222) = (  -0.0714286  -0.1428571  -0.5714286), wk =   0.0058309
        k(  223) = (   0.4285714   0.5000000   0.5714286), wk =   0.0058309
        k(  224) = (   0.5000000  -0.0714286   0.0714286), wk =   0.0029155
        k(  225) = (  -0.1428571   0.4285714  -0.0714286), wk =   0.0058309
        k(  226) = (  -0.5000000  -0.4285714  -0.5714286), wk =   0.0029155
        k(  227) = (   0.4285714  -0.0714286  -0.1428571), wk =   0.0058309
        k(  228) = (  -0.0714286  -0.4285714  -0.4285714), wk =   0.0029155
        k(  229) = (   0.0000000   0.3571429   0.4285714), wk =   0.0058309
        k(  230) = (   0.3571429  -0.0714286   0.3571429), wk =   0.0058309
        k(  231) = (  -0.4285714   0.0000000  -0.3571429), wk =   0.0058309
        k(  232) = (   0.4285714   0.0714286   0.4285714), wk =   0.0058309
        k(  233) = (  -0.3571429  -0.0000000  -0.4285714), wk =   0.0058309
        k(  234) = (  -0.0714286  -0.2857143  -0.4285714), wk =   0.0058309
        k(  235) = (   0.1428571   0.3571429   0.4285714), wk =   0.0058309
        k(  236) = (   0.3571429  -0.0714286   0.2142857), wk =   0.0058309
        k(  237) = (  -0.2857143   0.1428571  -0.2142857), wk =   0.0058309
        k(  238) = (   0.2857143   0.0714286   0.4285714), wk =   0.0058309
        k(  239) = (  -0.3571429  -0.1428571  -0.4285714), wk =   0.0058309
        k(  240) = (   0.1428571  -0.2142857  -0.2857143), wk =   0.0058309
        k(  241) = (  -0.4285714  -0.3571429  -0.1428571), wk =   0.0058309
        k(  242) = (   0.2142857   0.3571429  -0.0714286), wk =   0.0058309
        k(  243) = (   0.4285714   0.2857143   0.0714286), wk =   0.0058309
        k(  244) = (  -0.2142857  -0.2857143   0.1428571), wk =   0.0058309
        k(  245) = (  -0.0714286  -0.2857143  -0.2857143), wk =   0.0029155
        k(  246) = (  -0.0000000   0.2142857   0.2857143), wk =   0.0058309
        k(  247) = (   0.2142857  -0.0714286   0.2142857), wk =   0.0058309
        k(  248) = (  -0.2857143  -0.0000000  -0.2142857), wk =   0.0058309
        k(  249) = (   0.2857143   0.0714286   0.2857143), wk =   0.0058309
        k(  250) = (  -0.2142857   0.0000000  -0.2857143), wk =   0.0058309
        k(  251) = (  -0.2142857  -0.0000000  -0.0000000), wk =   0.0029155
        k(  252) = (  -0.0000000  -0.2142857   0.0000000), wk =   0.0058309
        k(  253) = (  -0.2142857   0.1428571   0.0000000), wk =   0.0058309
        k(  254) = (   0.1428571  -0.2142857  -0.0000000), wk =   0.0058309
        k(  255) = (   0.1428571   0.1428571   0.3571429), wk =   0.0058309
        k(  256) = (   0.0000000   0.2142857  -0.1428571), wk =   0.0058309
        k(  257) = (  -0.3571429  -0.2142857  -0.2142857), wk =   0.0029155
        k(  258) = (   0.3571429   0.1428571   0.1428571), wk =   0.0029155
        k(  259) = (  -0.2142857  -0.7142857   0.0000000), wk =   0.0058309
        k(  260) = (  -0.7142857  -0.2142857  -0.0000000), wk =   0.0058309
        k(  261) = (  -0.7142857  -0.7142857  -0.5000000), wk =   0.0058309
        k(  262) = (  -0.0000000   0.2142857   0.7142857), wk =   0.0058309
        k(  263) = (   0.5000000  -0.2142857  -0.2142857), wk =   0.0029155
        k(  264) = (  -0.5000000  -0.7142857  -0.7142857), wk =   0.0029155
        k(  265) = (  -0.2142857  -0.5714286   0.0000000), wk =   0.0058309
        k(  266) = (  -0.5714286  -0.2142857   0.0000000), wk =   0.0058309
        k(  267) = (  -0.5714286  -0.5714286  -0.3571429), wk =   0.0058309
        k(  268) = (   0.0000000   0.2142857   0.5714286), wk =   0.0058309
        k(  269) = (   0.3571429  -0.2142857  -0.2142857), wk =   0.0029155
        k(  270) = (  -0.3571429  -0.5714286  -0.5714286), wk =   0.0029155
        k(  271) = (  -0.2142857  -0.4285714   0.0000000), wk =   0.0058309
        k(  272) = (  -0.4285714  -0.2142857  -0.0000000), wk =   0.0058309
        k(  273) = (  -0.4285714  -0.4285714  -0.2142857), wk =   0.0058309
        k(  274) = (   0.0000000   0.2142857   0.4285714), wk =   0.0058309
        k(  275) = (   0.2142857  -0.2142857  -0.2142857), wk =   0.0029155
        k(  276) = (  -0.2142857  -0.4285714  -0.4285714), wk =   0.0029155
        k(  277) = (  -0.2142857   0.1428571   0.1428571), wk =   0.0029155
        k(  278) = (  -0.0000000  -0.3571429  -0.1428571), wk =   0.0058309
        k(  279) = (  -0.3571429  -0.2142857  -0.3571429), wk =   0.0058309
        k(  280) = (   0.1428571  -0.0000000   0.3571429), wk =   0.0058309
        k(  281) = (  -0.1428571   0.2142857  -0.1428571), wk =   0.0058309
        k(  282) = (   0.3571429   0.0000000   0.1428571), wk =   0.0058309
        k(  283) = (  -0.2142857  -0.7142857   0.1428571), wk =   0.0058309
        k(  284) = (  -0.8571429  -0.3571429  -0.1428571), wk =   0.0058309
        k(  285) = (  -0.3571429  -0.2142857   0.5000000), wk =   0.0058309
        k(  286) = (  -0.7142857  -0.8571429  -0.5000000), wk =   0.0058309
        k(  287) = (   0.7142857   0.2142857  -0.1428571), wk =   0.0058309
        k(  288) = (   0.3571429   0.8571429   0.1428571), wk =   0.0058309
        k(  289) = (  -0.8571429  -0.5000000  -0.7142857), wk =   0.0058309
        k(  290) = (   0.1428571   0.3571429   0.8571429), wk =   0.0058309
        k(  291) = (   0.5000000  -0.3571429  -0.2142857), wk =   0.0058309
        k(  292) = (  -0.1428571   0.7142857   0.2142857), wk =   0.0058309
        k(  293) = (  -0.5000000  -0.7142857  -0.8571429), wk =   0.0058309
        k(  294) = (  -0.2142857  -0.5714286   0.1428571), wk =   0.0058309
        k(  295) = (  -0.7142857  -0.3571429  -0.1428571), wk =   0.0058309
        k(  296) = (  -0.3571429  -0.2142857   0.3571429), wk =   0.0058309
        k(  297) = (  -0.5714286  -0.7142857  -0.3571429), wk =   0.0058309
        k(  298) = (   0.5714286   0.2142857  -0.1428571), wk =   0.0058309
        k(  299) = (   0.3571429   0.7142857   0.1428571), wk =   0.0058309
        k(  300) = (  -0.7142857  -0.3571429  -0.5714286), wk =   0.0058309
        k(  301) = (   0.1428571   0.3571429   0.7142857), wk =   0.0058309
        k(  302) = (   0.3571429  -0.3571429  -0.2142857), wk =   0.0058309
        k(  303) = (  -0.1428571   0.5714286   0.2142857), wk =   0.0058309
        k(  304) = (  -0.3571429  -0.5714286  -0.7142857), wk =   0.0058309
        k(  305) = (  -0.2142857  -0.4285714   0.1428571), wk =   0.0058309
        k(  306) = (  -0.5714286  -0.3571429  -0.1428571), wk =   0.0058309
        k(  307) = (  -0.3571429  -0.2142857   0.2142857), wk =   0.0058309
        k(  308) = (  -0.4285714  -0.5714286  -0.2142857), wk =   0.0058309
        k(  309) = (   0.4285714   0.2142857  -0.1428571), wk =   0.0058309
        k(  310) = (   0.3571429   0.5714286   0.1428571), wk =   0.0058309
        k(  311) = (  -0.5714286  -0.2142857  -0.4285714), wk =   0.0058309
        k(  312) = (   0.1428571   0.3571429   0.5714286), wk =   0.0058309
        k(  313) = (   0.2142857  -0.3571429  -0.2142857), wk =   0.0058309
        k(  314) = (  -0.1428571   0.4285714   0.2142857), wk =   0.0058309
        k(  315) = (  -0.2142857  -0.4285714  -0.5714286), wk =   0.0058309
        k(  316) = (  -0.2142857  -0.7142857  -0.7142857), wk =   0.0029155
        k(  317) = (   0.0000000   0.5000000   0.7142857), wk =   0.0058309
        k(  318) = (   0.5000000  -0.2142857   0.5000000), wk =   0.0058309
        k(  319) = (  -0.7142857   0.0000000  -0.5000000), wk =   0.0058309
        k(  320) = (   0.7142857   0.2142857   0.7142857), wk =   0.0058309
        k(  321) = (  -0.5000000  -0.0000000  -0.7142857), wk =   0.0058309
        k(  322) = (  -0.2142857  -0.5714286  -0.7142857), wk =   0.0058309
        k(  323) = (   0.1428571   0.5000000   0.7142857), wk =   0.0058309
        k(  324) = (   0.5000000  -0.2142857   0.3571429), wk =   0.0058309
        k(  325) = (  -0.5714286   0.1428571  -0.3571429), wk =   0.0058309
        k(  326) = (   0.5714286   0.2142857   0.7142857), wk =   0.0058309
        k(  327) = (  -0.5000000  -0.1428571  -0.7142857), wk =   0.0058309
        k(  328) = (   0.1428571  -0.3571429  -0.5714286), wk =   0.0058309
        k(  329) = (  -0.7142857  -0.5000000  -0.1428571), wk =   0.0058309
        k(  330) = (   0.3571429   0.5000000  -0.2142857), wk =   0.0058309
        k(  331) = (   0.7142857   0.5714286   0.2142857), wk =   0.0058309
        k(  332) = (  -0.3571429  -0.5714286   0.1428571), wk =   0.0058309
        k(  333) = (  -0.2142857  -0.4285714  -0.7142857), wk =   0.0058309
        k(  334) = (   0.2857143   0.5000000   0.7142857), wk =   0.0058309
        k(  335) = (   0.5000000  -0.2142857   0.2142857), wk =   0.0029155
        k(  336) = (  -0.4285714   0.2857143  -0.2142857), wk =   0.0058309
        k(  337) = (  -0.5000000  -0.2857143  -0.7142857), wk =   0.0029155
        k(  338) = (   0.2857143  -0.2142857  -0.4285714), wk =   0.0058309
        k(  339) = (  -0.2142857  -0.5714286  -0.5714286), wk =   0.0029155
        k(  340) = (   0.0000000   0.3571429   0.5714286), wk =   0.0058309
        k(  341) = (   0.3571429  -0.2142857   0.3571429), wk =   0.0058309
        k(  342) = (  -0.5714286   0.0000000  -0.3571429), wk =   0.0058309
        k(  343) = (   0.5714286   0.2142857   0.5714286), wk =   0.0058309
        k(  344) = (  -0.3571429  -0.0000000  -0.5714286), wk =   0.0058309
        k(  345) = (  -0.3571429  -0.0000000  -0.0000000), wk =   0.0029155
        k(  346) = (   0.0000000  -0.3571429   0.0000000), wk =   0.0058309
        k(  347) = (  -0.3571429  -0.8571429   0.0000000), wk =   0.0058309
        k(  348) = (  -0.8571429  -0.3571429  -0.0000000), wk =   0.0058309
        k(  349) = (  -0.8571429  -0.8571429  -0.5000000), wk =   0.0058309
        k(  350) = (  -0.0000000   0.3571429   0.8571429), wk =   0.0058309
        k(  351) = (   0.5000000  -0.3571429  -0.3571429), wk =   0.0029155
        k(  352) = (  -0.5000000  -0.8571429  -0.8571429), wk =   0.0029155
        k(  353) = (  -0.3571429  -0.7142857  -0.0000000), wk =   0.0058309
        k(  354) = (  -0.7142857  -0.3571429   0.0000000), wk =   0.0058309
        k(  355) = (  -0.7142857  -0.7142857  -0.3571429), wk =   0.0058309
        k(  356) = (  -0.0000000   0.3571429   0.7142857), wk =   0.0058309
        k(  357) = (   0.3571429  -0.3571429  -0.3571429), wk =   0.0029155
        k(  358) = (  -0.3571429  -0.7142857  -0.7142857), wk =   0.0029155
        k(  359) = (  -0.3571429  -0.8571429  -0.8571429), wk =   0.0029155
        k(  360) = (  -0.0000000   0.5000000   0.8571429), wk =   0.0058309
        k(  361) = (   0.5000000  -0.3571429   0.5000000), wk =   0.0058309
        k(  362) = (  -0.8571429   0.0000000  -0.5000000), wk =   0.0058309
        k(  363) = (   0.8571429   0.3571429   0.8571429), wk =   0.0058309
        k(  364) = (  -0.5000000   0.0000000  -0.8571429), wk =   0.0058309
        k(  365) = (  -0.3571429  -0.7142857  -0.8571429), wk =   0.0058309
        k(  366) = (   0.1428571   0.5000000   0.8571429), wk =   0.0058309
        k(  367) = (   0.5000000  -0.3571429   0.3571429), wk =   0.0029155
        k(  368) = (  -0.7142857   0.1428571  -0.3571429), wk =   0.0058309
        k(  369) = (  -0.5000000  -0.1428571  -0.8571429), wk =   0.0029155
        k(  370) = (   0.1428571  -0.3571429  -0.7142857), wk =   0.0058309
        k(  371) = (   0.5000000   0.0000000   0.0000000), wk =   0.0014577
        k(  372) = (   0.0000000   0.5000000  -0.0000000), wk =   0.0029155

     Dense  grid:   133115 G-vectors     FFT dimensions: (  72,  72,  72)

     Smooth grid:    47183 G-vectors     FFT dimensions: (  54,  54,  54)

     Dynamical RAM for                 wfc:       0.57 MB

     Dynamical RAM for     wfc (w. buffer):     212.17 MB

     Dynamical RAM for           str. fact:       0.34 MB

     Dynamical RAM for           local pot:       0.00 MB

     Dynamical RAM for          nlocal pot:       4.31 MB

     Dynamical RAM for                qrad:       1.24 MB

     Dynamical RAM for          rho,v,vnew:       2.44 MB

     Dynamical RAM for               rhoin:       0.81 MB

     Dynamical RAM for            rho*nmix:       5.42 MB

     Dynamical RAM for           G-vectors:       1.33 MB

     Dynamical RAM for          h,s,v(r/c):       0.26 MB

     Dynamical RAM for          <psi|beta>:       0.17 MB

     Dynamical RAM for                 psi:       1.14 MB

     Dynamical RAM for                hpsi:       1.14 MB

     Dynamical RAM for                spsi:       1.14 MB

     Dynamical RAM for      wfcinit/wfcrot:       1.17 MB

     Dynamical RAM for           addusdens:      68.38 MB

     Dynamical RAM for          addusforce:      78.77 MB

     Dynamical RAM for         addusstress:      68.04 MB

     Estimated static dynamical RAM per process >     225.69 MB

     Estimated max dynamical RAM per process >     309.88 MB

     Estimated total dynamical RAM >       1.82 GB

     Initial potential from superposition of free atoms

     starting charge      63.9911, renormalised to      64.0000
     Starting wfcs are   64 randomized atomic wfcs

     total cpu time spent up to now is       15.7 secs

     Self-consistent Calculation

     iteration #  1     ecut=    30.00 Ry     beta= 0.40
     Davidson diagonalization with overlap

---- Real-time Memory Report at c_bands before calling an iterative solver
             0 MiB given to the printing process from OS
             0 MiB allocation reported by mallinfo(arena+hblkhd)
             0 MiB available memory on the node where the printing process lives
------------------
     ethr =  1.00E-02,  avg # of iterations =  3.1

     Threshold (ethr) on eigenvalues was too large:
     Diagonalizing with lowered threshold

     Davidson diagonalization with overlap

---- Real-time Memory Report at c_bands before calling an iterative solver
             0 MiB given to the printing process from OS
             0 MiB allocation reported by mallinfo(arena+hblkhd)
             0 MiB available memory on the node where the printing process lives
------------------
     ethr =  6.41E-04,  avg # of iterations =  2.1

     total cpu time spent up to now is       86.8 secs

     WARNING: integrated charge=    64.00136745, expected=    64.00000000

     total energy              =    -182.71854126 Ry
     estimated scf accuracy    <       0.44685669 Ry

     iteration #  2     ecut=    30.00 Ry     beta= 0.40
     Davidson diagonalization with overlap

---- Real-time Memory Report at c_bands before calling an iterative solver
             0 MiB given to the printing process from OS
             0 MiB allocation reported by mallinfo(arena+hblkhd)
             0 MiB available memory on the node where the printing process lives
------------------
     ethr =  6.98E-04,  avg # of iterations =  1.0

     total cpu time spent up to now is      113.0 secs

     WARNING: integrated charge=    64.00882992, expected=    64.00000000

     total energy              =    -182.69209723 Ry
     estimated scf accuracy    <       0.13633999 Ry

     iteration #  3     ecut=    30.00 Ry     beta= 0.40
     Davidson diagonalization with overlap

---- Real-time Memory Report at c_bands before calling an iterative solver
             0 MiB given to the printing process from OS
             0 MiB allocation reported by mallinfo(arena+hblkhd)
             0 MiB available memory on the node where the printing process lives
------------------
     ethr =  2.13E-04,  avg # of iterations =  3.8

     total cpu time spent up to now is      149.9 secs

     WARNING: integrated charge=    63.99897869, expected=    64.00000000

     total energy              =    -182.70669567 Ry
     estimated scf accuracy    <       0.00232422 Ry

     iteration #  4     ecut=    30.00 Ry     beta= 0.40
     Davidson diagonalization with overlap

---- Real-time Memory Report at c_bands before calling an iterative solver
             0 MiB given to the printing process from OS
             0 MiB allocation reported by mallinfo(arena+hblkhd)
             0 MiB available memory on the node where the printing process lives
------------------
     c_bands:  1 eigenvalues not converged
     c_bands:  1 eigenvalues not converged
     c_bands:  1 eigenvalues not converged
     c_bands:  1 eigenvalues not converged
     c_bands:  4 eigenvalues not converged
     c_bands:  2 eigenvalues not converged
     c_bands:  3 eigenvalues not converged
     c_bands:  1 eigenvalues not converged
     c_bands:  1 eigenvalues not converged
     c_bands:  1 eigenvalues not converged
     c_bands:  2 eigenvalues not converged
     c_bands:  1 eigenvalues not converged
     c_bands:  2 eigenvalues not converged
     c_bands:  1 eigenvalues not converged
     c_bands:  4 eigenvalues not converged
     c_bands:  2 eigenvalues not converged
     c_bands:  1 eigenvalues not converged
     c_bands:  1 eigenvalues not converged
     c_bands:  1 eigenvalues not converged
     c_bands:  1 eigenvalues not converged
     c_bands:  3 eigenvalues not converged
     c_bands:  2 eigenvalues not converged
     c_bands:  2 eigenvalues not converged
     c_bands:  1 eigenvalues not converged
     c_bands:  2 eigenvalues not converged
     c_bands:  1 eigenvalues not converged
     c_bands:  1 eigenvalues not converged
     c_bands:  1 eigenvalues not converged
     c_bands:  1 eigenvalues not converged
     c_bands:  1 eigenvalues not converged
     c_bands:  1 eigenvalues not converged
     c_bands:  1 eigenvalues not converged
     c_bands:  1 eigenvalues not converged
     c_bands:  1 eigenvalues not converged
     c_bands:  1 eigenvalues not converged
     c_bands:  1 eigenvalues not converged
     c_bands:  1 eigenvalues not converged
     c_bands:  1 eigenvalues not converged
     c_bands:  1 eigenvalues not converged
     c_bands:  1 eigenvalues not converged
     c_bands:  1 eigenvalues not converged
     c_bands:  1 eigenvalues not converged
     c_bands:  1 eigenvalues not converged
     c_bands:  2 eigenvalues not converged
     c_bands:  3 eigenvalues not converged
     c_bands:  3 eigenvalues not converged
     c_bands:  3 eigenvalues not converged
     c_bands:  1 eigenvalues not converged
     c_bands:  4 eigenvalues not converged
     c_bands:  2 eigenvalues not converged
     c_bands:  2 eigenvalues not converged
     c_bands:  1 eigenvalues not converged
     c_bands:  2 eigenvalues not converged
     c_bands:  3 eigenvalues not converged
     c_bands:  3 eigenvalues not converged
     c_bands:  2 eigenvalues not converged
     c_bands:  3 eigenvalues not converged
     c_bands:  3 eigenvalues not converged
     c_bands:  2 eigenvalues not converged
     c_bands:  3 eigenvalues not converged
     c_bands:  1 eigenvalues not converged
     c_bands:  1 eigenvalues not converged
     c_bands:  1 eigenvalues not converged
     c_bands:  1 eigenvalues not converged
     c_bands:  1 eigenvalues not converged
     c_bands:  1 eigenvalues not converged
     c_bands:  1 eigenvalues not converged
     c_bands:  1 eigenvalues not converged
     c_bands:  1 eigenvalues not converged
     c_bands:  1 eigenvalues not converged
     c_bands:  1 eigenvalues not converged
     c_bands:  1 eigenvalues not converged
     c_bands:  1 eigenvalues not converged
     c_bands:  1 eigenvalues not converged
     c_bands:  1 eigenvalues not converged
     c_bands:  1 eigenvalues not converged
     c_bands:  1 eigenvalues not converged
     c_bands:  1 eigenvalues not converged
     c_bands:  1 eigenvalues not converged
     c_bands:  1 eigenvalues not converged
     c_bands:  1 eigenvalues not converged
     c_bands:  1 eigenvalues not converged
     c_bands:  1 eigenvalues not converged
     c_bands:  1 eigenvalues not converged
     c_bands:  1 eigenvalues not converged
     c_bands:  1 eigenvalues not converged
     c_bands:  2 eigenvalues not converged
     c_bands:  1 eigenvalues not converged
     c_bands:  2 eigenvalues not converged
     c_bands:  1 eigenvalues not converged
     c_bands:  2 eigenvalues not converged
     c_bands:  1 eigenvalues not converged
     c_bands:  1 eigenvalues not converged
     c_bands:  1 eigenvalues not converged
     c_bands:  1 eigenvalues not converged
     c_bands:  1 eigenvalues not converged
     c_bands:  3 eigenvalues not converged
     c_bands:  3 eigenvalues not converged
     c_bands:  3 eigenvalues not converged
     c_bands:  3 eigenvalues not converged
     c_bands:  2 eigenvalues not converged
     c_bands:  2 eigenvalues not converged
     c_bands:  1 eigenvalues not converged
     c_bands:  3 eigenvalues not converged
     c_bands:  1 eigenvalues not converged
     c_bands:  1 eigenvalues not converged
     c_bands:  1 eigenvalues not converged
     c_bands:  1 eigenvalues not converged
     c_bands:  1 eigenvalues not converged
     c_bands:  1 eigenvalues not converged
     c_bands:  1 eigenvalues not converged
     c_bands:  1 eigenvalues not converged
     c_bands:  1 eigenvalues not converged
     c_bands:  1 eigenvalues not converged
     c_bands:  1 eigenvalues not converged
     c_bands:  2 eigenvalues not converged
     c_bands:  2 eigenvalues not converged
     c_bands:  2 eigenvalues not converged
     c_bands:  2 eigenvalues not converged
     c_bands:  1 eigenvalues not converged
     c_bands:  2 eigenvalues not converged
     c_bands:  2 eigenvalues not converged
     c_bands:  2 eigenvalues not converged
     c_bands:  2 eigenvalues not converged
     c_bands:  2 eigenvalues not converged
     c_bands:  2 eigenvalues not converged
     c_bands:  2 eigenvalues not converged
     c_bands:  1 eigenvalues not converged
     c_bands:  1 eigenvalues not converged
     c_bands:  1 eigenvalues not converged
     c_bands:  2 eigenvalues not converged
     c_bands:  1 eigenvalues not converged
     c_bands:  1 eigenvalues not converged
     c_bands:  1 eigenvalues not converged
     c_bands:  2 eigenvalues not converged
     c_bands:  2 eigenvalues not converged
     c_bands:  1 eigenvalues not converged
     c_bands:  1 eigenvalues not converged
     c_bands:  2 eigenvalues not converged
     c_bands:  2 eigenvalues not converged
     c_bands:  2 eigenvalues not converged
     c_bands:  1 eigenvalues not converged
     c_bands:  1 eigenvalues not converged
     c_bands:  2 eigenvalues not converged
     c_bands:  1 eigenvalues not converged
     c_bands:  1 eigenvalues not converged
     c_bands:  1 eigenvalues not converged
     c_bands:  1 eigenvalues not converged
     c_bands:  1 eigenvalues not converged
     c_bands:  1 eigenvalues not converged
     c_bands:  1 eigenvalues not converged
     c_bands:  1 eigenvalues not converged
     c_bands:  4 eigenvalues not converged
     c_bands:  3 eigenvalues not converged
     c_bands:  4 eigenvalues not converged
     c_bands:  4 eigenvalues not converged
     c_bands:  3 eigenvalues not converged
     c_bands:  3 eigenvalues not converged
     c_bands:  1 eigenvalues not converged
     c_bands:  1 eigenvalues not converged
     c_bands:  1 eigenvalues not converged
     c_bands:  1 eigenvalues not converged
     c_bands:  1 eigenvalues not converged
     c_bands:  1 eigenvalues not converged
     c_bands:  1 eigenvalues not converged
     c_bands:  1 eigenvalues not converged
     c_bands:  1 eigenvalues not converged
     c_bands:  1 eigenvalues not converged
     c_bands:  1 eigenvalues not converged
     c_bands:  1 eigenvalues not converged
     c_bands:  1 eigenvalues not converged
     c_bands:  1 eigenvalues not converged
     c_bands:  1 eigenvalues not converged
     c_bands:  1 eigenvalues not converged
     c_bands:  1 eigenvalues not converged
     c_bands:  1 eigenvalues not converged
     c_bands:  1 eigenvalues not converged
     c_bands:  2 eigenvalues not converged
     c_bands:  2 eigenvalues not converged
     c_bands:  1 eigenvalues not converged
     c_bands:  3 eigenvalues not converged
     c_bands:  2 eigenvalues not converged
     c_bands:  1 eigenvalues not converged
     c_bands:  2 eigenvalues not converged
     c_bands:  1 eigenvalues not converged
     c_bands:  1 eigenvalues not converged
     c_bands:  1 eigenvalues not converged
     c_bands:  1 eigenvalues not converged
     c_bands:  2 eigenvalues not converged
     c_bands:  2 eigenvalues not converged
     c_bands:  3 eigenvalues not converged
     c_bands:  1 eigenvalues not converged
     c_bands:  2 eigenvalues not converged
     c_bands:  2 eigenvalues not converged
     c_bands:  3 eigenvalues not converged
     c_bands:  2 eigenvalues not converged
     c_bands:  1 eigenvalues not converged
     c_bands:  3 eigenvalues not converged
     c_bands:  2 eigenvalues not converged
     c_bands:  2 eigenvalues not converged
     c_bands:  1 eigenvalues not converged
     c_bands:  1 eigenvalues not converged
     c_bands:  1 eigenvalues not converged
     c_bands:  1 eigenvalues not converged
     c_bands:  2 eigenvalues not converged
     c_bands:  1 eigenvalues not converged
     c_bands:  2 eigenvalues not converged
     c_bands:  2 eigenvalues not converged
     ethr =  3.63E-06,  avg # of iterations = 17.2
     Minimization algorithm failed to find Fermi energy: reverting to bisection
     Possible cause: smearing is larger than the electronic band-gap.

     total cpu time spent up to now is      241.8 secs

     WARNING: integrated charge=    64.00013473, expected=    64.00000000

     total energy              =    -182.70808006 Ry
     estimated scf accuracy    <       0.00096227 Ry

     iteration #  5     ecut=    30.00 Ry     beta= 0.40
     Davidson diagonalization with overlap

---- Real-time Memory Report at c_bands before calling an iterative solver
             0 MiB given to the printing process from OS
             0 MiB allocation reported by mallinfo(arena+hblkhd)
             0 MiB available memory on the node where the printing process lives
------------------
     c_bands:  1 eigenvalues not converged
     c_bands:  1 eigenvalues not converged
     c_bands:  1 eigenvalues not converged
     c_bands:  1 eigenvalues not converged
     c_bands:  1 eigenvalues not converged
     c_bands:  1 eigenvalues not converged
     c_bands:  1 eigenvalues not converged
     c_bands:  1 eigenvalues not converged
     c_bands:  1 eigenvalues not converged
     c_bands:  1 eigenvalues not converged
     c_bands:  1 eigenvalues not converged
     c_bands:  1 eigenvalues not converged
     c_bands:  2 eigenvalues not converged
     c_bands:  1 eigenvalues not converged
     c_bands:  1 eigenvalues not converged
     c_bands:  2 eigenvalues not converged
     c_bands:  1 eigenvalues not converged
     c_bands:  2 eigenvalues not converged
     c_bands:  1 eigenvalues not converged
     c_bands:  1 eigenvalues not converged
     c_bands:  1 eigenvalues not converged
     c_bands:  1 eigenvalues not converged
     c_bands:  1 eigenvalues not converged
     c_bands:  1 eigenvalues not converged
     c_bands:  1 eigenvalues not converged
     c_bands:  1 eigenvalues not converged
     c_bands:  1 eigenvalues not converged
     c_bands:  2 eigenvalues not converged
     ethr =  1.50E-06,  avg # of iterations =  6.3
     Minimization algorithm failed to find Fermi energy: reverting to bisection
     Possible cause: smearing is larger than the electronic band-gap.

     total cpu time spent up to now is      284.7 secs

     WARNING: integrated charge=    64.00008960, expected=    64.00000000

     total energy              =    -182.70818463 Ry
     estimated scf accuracy    <       0.00000524 Ry

[...]
     0.0000   0.0000   0.0000   0.0000   0.0000   0.0000

          k = 0.8586 0.3536-0.1515 (  5884 PWs)   bands (ev):

    -4.7034  -4.7031  -3.8092  -3.8081  -2.7806  -2.7794  -2.3651  -2.3607
    -0.5108  -0.5024  -0.0489  -0.0465   1.1698   1.1757   2.1328   2.1337
     2.4253   2.4281   2.5138   2.5172   3.4434   3.4437   3.7397   3.7451
     3.9767   3.9798   4.3286   4.3347   4.4233   4.4254   5.4974   5.5041
     8.3553   8.3600   8.3954   8.3979   9.0507   9.0528

     occupation numbers 
     1.0000   1.0000   1.0000   1.0000   1.0000   1.0000   1.0000   1.0000
     1.0000   1.0000   1.0000   1.0000   1.0000   1.0000   1.0000   1.0000
     1.0000   1.0000   1.0000   1.0000   1.0000   1.0000   1.0000   1.0000
     1.0000   1.0000   1.0000   1.0000   1.0000   1.0000   1.0004   1.0004
     0.0000   0.0000   0.0000   0.0000   0.0000   0.0000

          k = 0.8586-0.3536 0.1515 (  5884 PWs)   bands (ev):

    -4.7067  -4.6992  -3.8128  -3.8050  -2.7831  -2.7796  -2.3652  -2.3589
    -0.5090  -0.5063  -0.0488  -0.0389   1.1727   1.1763   2.1276   2.1349
     2.4204   2.4262   2.5137   2.5139   3.4408   3.4441   3.7397   3.7433
     3.9791   3.9823   4.3286   4.3332   4.4242   4.4250   5.4989   5.5091
     8.3584   8.3610   8.3980   8.4008   9.0503   9.0540

     occupation numbers 
     1.0000   1.0000   1.0000   1.0000   1.0000   1.0000   1.0000   1.0000
     1.0000   1.0000   1.0000   1.0000   1.0000   1.0000   1.0000   1.0000
     1.0000   1.0000   1.0000   1.0000   1.0000   1.0000   1.0000   1.0000
     1.0000   1.0000   1.0000   1.0000   1.0000   1.0000   1.0004   1.0004
     0.0000   0.0000   0.0000   0.0000   0.0000   0.0000

          k = 0.1515-0.8586 0.3536 (  5884 PWs)   bands (ev):

    -4.7034  -4.7032  -3.8123  -3.8051  -2.7817  -2.7760  -2.3668  -2.3615
    -0.5070  -0.5016  -0.0552  -0.0462   1.1694   1.1771   2.1310   2.1363
     2.4262   2.4274   2.5137   2.5184   3.4414   3.4425   3.7416   3.7460
     3.9751   3.9786   4.3316   4.3349   4.4223   4.4289   5.4947   5.5026
     8.3538   8.3594   8.3937   8.3969   9.0499   9.0558

     occupation numbers 
     1.0000   1.0000   1.0000   1.0000   1.0000   1.0000   1.0000   1.0000
     1.0000   1.0000   1.0000   1.0000   1.0000   1.0000   1.0000   1.0000
     1.0000   1.0000   1.0000   1.0000   1.0000   1.0000   1.0000   1.0000
     1.0000   1.0000   1.0000   1.0000   1.0000   1.0000   1.0003   1.0004
     0.0000   0.0000   0.0000   0.0000   0.0000   0.0000

          k =-0.3536-0.3536 0.3536 (  5900 PWs)   bands (ev):

    -4.8845  -4.8771  -2.9395  -2.9299  -2.9294  -2.9279  -2.9274  -2.9206
    -0.0419  -0.0408  -0.0407  -0.0379  -0.0370  -0.0273   2.4261   2.4320
     2.7867   2.7949   2.7975   2.8002   2.8016   2.8016   4.1480   4.1485
     4.1503   4.1537   4.1561   4.1617   5.6205   5.6207   5.6238   5.6338
     7.8961   7.8971   7.8980   7.8995   7.9067   7.9071

     occupation numbers 
     1.0000   1.0000   1.0000   1.0000   1.0000   1.0000   1.0000   1.0000
     1.0000   1.0000   1.0000   1.0000   1.0000   1.0000   1.0000   1.0000
     1.0000   1.0000   1.0000   1.0000   1.0000   1.0000   1.0000   1.0000
     1.0000   1.0000   1.0000   1.0000   1.0028   1.0028   1.0030   1.0034
     0.0000   0.0000   0.0000   0.0000   0.0000   0.0000

          k = 0.3536 0.3536 0.3536 (  5900 PWs)   bands (ev):

    -4.8812  -4.8811  -2.9386  -2.9296  -2.9285  -2.9285  -2.9275  -2.9186
    -0.0516  -0.0420  -0.0395  -0.0395  -0.0370  -0.0274   2.4321   2.4323
     2.7936   2.7985   2.8001   2.8001   2.8016   2.8066   4.1464   4.1513
     4.1515   4.1516   4.1518   4.1568   5.6145   5.6228   5.6235   5.6320
     7.8917   7.8986   7.8991   7.8991   7.8994   7.9063

     occupation numbers 
     1.0000   1.0000   1.0000   1.0000   1.0000   1.0000   1.0000   1.0000
     1.0000   1.0000   1.0000   1.0000   1.0000   1.0000   1.0000   1.0000
     1.0000   1.0000   1.0000   1.0000   1.0000   1.0000   1.0000   1.0000
     1.0000   1.0000   1.0000   1.0000   1.0026   1.0029   1.0029   1.0033
     0.0000   0.0000   0.0000   0.0000   0.0000   0.0000

     the Fermi energy is     6.3964 ev

!    total energy              =    -182.70819367 Ry
     estimated scf accuracy    <          7.9E-11 Ry
     smearing contrib. (-TS)   =       0.00221979 Ry
     internal energy E=F+TS    =    -182.71041346 Ry

     The total energy is F=E-TS. E is the sum of the following terms:
     one-electron contribution =      42.46374723 Ry
     hartree contribution      =       8.67335325 Ry
     xc contribution           =     -98.64963514 Ry
     ewald contribution        =    -135.19787880 Ry

     convergence has been achieved in  13 iterations

     Forces acting on atoms (cartesian axes, Ry/au):

     atom    1 type  1   force =     0.00417670    0.00008021   -0.00417670
     atom    2 type  1   force =    -0.00032058    0.00000009    0.00032058
     atom    3 type  1   force =     0.00022854    0.00015414    0.00016693
     atom    4 type  1   force =    -0.00016755   -0.00015262   -0.00022940
     atom    5 type  1   force =    -0.00016693    0.00015414   -0.00022854
     atom    6 type  1   force =     0.00022940   -0.00015262    0.00016755
     atom    7 type  1   force =    -0.00001391    0.00000068    0.00001391
     atom    8 type  1   force =    -0.00006320   -0.00000011    0.00006320
     atom    9 type  1   force =    -0.00030208   -0.00000678    0.00029502
     atom   10 type  1   force =     0.00009948   -0.00000058   -0.00009875
     atom   11 type  1   force =    -0.00175389    0.00144600    0.00175389
     atom   12 type  1   force =    -0.00180289   -0.00151420    0.00180289
     atom   13 type  1   force =     0.00002672   -0.00007302   -0.00002672
     atom   14 type  1   force =     0.00002648    0.00007205   -0.00002648
     atom   15 type  1   force =    -0.00029502   -0.00000678    0.00030208
     atom   16 type  1   force =     0.00009875   -0.00000058   -0.00009948
     The non-local contrib.  to forces
     atom    1 type  1   force =     0.00340646    0.00006745   -0.00340646
     atom    2 type  1   force =    -0.00009837    0.00000256    0.00009837
     atom    3 type  1   force =    -0.00022281    0.00001597    0.00008375
     atom    4 type  1   force =    -0.00008235   -0.00001465    0.00022273
     atom    5 type  1   force =    -0.00008375    0.00001597    0.00022281
     atom    6 type  1   force =    -0.00022273   -0.00001465    0.00008235
     atom    7 type  1   force =    -0.00006764   -0.00000080    0.00006764
     atom    8 type  1   force =     0.00005780   -0.00000013   -0.00005780
     atom    9 type  1   force =     0.00030844   -0.00000899   -0.00032845
     atom   10 type  1   force =    -0.00009788    0.00000014    0.00009769
     atom   11 type  1   force =    -0.00155175    0.00186127    0.00155175
     atom   12 type  1   force =    -0.00158890   -0.00191663    0.00158890
     atom   13 type  1   force =     0.00000363    0.00010132   -0.00000363
     atom   14 type  1   force =     0.00000374   -0.00010160   -0.00000374
     atom   15 type  1   force =     0.00032845   -0.00000899   -0.00030844
     atom   16 type  1   force =    -0.00009769    0.00000014    0.00009788
     The ionic contribution  to forces
     atom    1 type  1   force =     0.01339738    0.00018166   -0.01339738
     atom    2 type  1   force =    -0.00490064    0.00000000    0.00490064
     atom    3 type  1   force =     0.00095502    0.00308330    0.00181719
     atom    4 type  1   force =    -0.00181719   -0.00308330   -0.00095502
     atom    5 type  1   force =    -0.00181719    0.00308330   -0.00095502
     atom    6 type  1   force =     0.00095502   -0.00308330    0.00181719
     atom    7 type  1   force =     0.00126608    0.00000000   -0.00126608
     atom    8 type  1   force =    -0.00089314    0.00000000    0.00089314
     atom    9 type  1   force =     0.00432634   -0.00003075   -0.00438384
     atom   10 type  1   force =    -0.00160609    0.00000877    0.00161888
     atom   11 type  1   force =    -0.00613189    0.01042799    0.00613189
     atom   12 type  1   force =    -0.00615105   -0.01056618    0.00615105
     atom   13 type  1   force =    -0.00017594    0.00143890    0.00017594
     atom   14 type  1   force =    -0.00017167   -0.00143841    0.00017167
     atom   15 type  1   force =     0.00438384   -0.00003075   -0.00432634
     atom   16 type  1   force =    -0.00161888    0.00000877    0.00160609
     The local contribution  to forces
     atom    1 type  1   force =    -0.01222683   -0.00016500    0.01222683
     atom    2 type  1   force =     0.00466461   -0.00000190   -0.00466461
     atom    3 type  1   force =    -0.00052826   -0.00294033   -0.00172478
     atom    4 type  1   force =     0.00172255    0.00294107    0.00052729
     atom    5 type  1   force =     0.00172478   -0.00294033    0.00052826
     atom    6 type  1   force =    -0.00052729    0.00294107   -0.00172255
     atom    7 type  1   force =    -0.00121714    0.00000157    0.00121714
     atom    8 type  1   force =     0.00077599    0.00000009   -0.00077599
     atom    9 type  1   force =    -0.00489734    0.00003215    0.00496525
     atom   10 type  1   force =     0.00178868   -0.00000932   -0.00180072
     atom   11 type  1   force =     0.00574463   -0.01061818   -0.00574463
     atom   12 type  1   force =     0.00574746    0.01073738   -0.00574746
     atom   13 type  1   force =     0.00019910   -0.00159854   -0.00019910
     atom   14 type  1   force =     0.00019437    0.00159730   -0.00019437
     atom   15 type  1   force =    -0.00496525    0.00003215    0.00489734
     atom   16 type  1   force =     0.00180072   -0.00000932   -0.00178868
     The core correction contribution to forces
     atom    1 type  1   force =    -0.00039672   -0.00000350    0.00039672
     atom    2 type  1   force =     0.00001002   -0.00000027   -0.00001002
     atom    3 type  1   force =     0.00002491   -0.00000144   -0.00000873
     atom    4 type  1   force =     0.00000857    0.00000129   -0.00002491
     atom    5 type  1   force =     0.00000873   -0.00000144   -0.00002491
     atom    6 type  1   force =     0.00002491    0.00000129   -0.00000857
     atom    7 type  1   force =     0.00000727    0.00000009   -0.00000727
     atom    8 type  1   force =    -0.00000650    0.00000001    0.00000650
     atom    9 type  1   force =    -0.00003614    0.00000102    0.00003840
     atom   10 type  1   force =     0.00001090   -0.00000002   -0.00001088
     atom   11 type  1   force =     0.00018495   -0.00022113   -0.00018495
     atom   12 type  1   force =     0.00018943    0.00022783   -0.00018943
     atom   13 type  1   force =    -0.00000019   -0.00001109    0.00000019
     atom   14 type  1   force =    -0.00000022    0.00001111    0.00000022
     atom   15 type  1   force =    -0.00003840    0.00000102    0.00003614
     atom   16 type  1   force =     0.00001088   -0.00000002   -0.00001090
     The Hubbard contrib.    to forces
     atom    1 type  1   force =     0.00000000    0.00000000    0.00000000
     atom    2 type  1   force =     0.00000000    0.00000000    0.00000000
     atom    3 type  1   force =     0.00000000    0.00000000    0.00000000
     atom    4 type  1   force =     0.00000000    0.00000000    0.00000000
     atom    5 type  1   force =     0.00000000    0.00000000    0.00000000
     atom    6 type  1   force =     0.00000000    0.00000000    0.00000000
     atom    7 type  1   force =     0.00000000    0.00000000    0.00000000
     atom    8 type  1   force =     0.00000000    0.00000000    0.00000000
     atom    9 type  1   force =     0.00000000    0.00000000    0.00000000
     atom   10 type  1   force =     0.00000000    0.00000000    0.00000000
     atom   11 type  1   force =     0.00000000    0.00000000    0.00000000
     atom   12 type  1   force =     0.00000000    0.00000000    0.00000000
     atom   13 type  1   force =     0.00000000    0.00000000    0.00000000
     atom   14 type  1   force =     0.00000000    0.00000000    0.00000000
     atom   15 type  1   force =     0.00000000    0.00000000    0.00000000
     atom   16 type  1   force =     0.00000000    0.00000000    0.00000000
     The SCF correction term to forces
     atom    1 type  1   force =    -0.00000373   -0.00000020    0.00000373
     atom    2 type  1   force =     0.00000366   -0.00000011   -0.00000366
     atom    3 type  1   force =    -0.00000046   -0.00000317   -0.00000036
     atom    4 type  1   force =     0.00000073    0.00000315    0.00000064
     atom    5 type  1   force =     0.00000036   -0.00000317    0.00000046
     atom    6 type  1   force =    -0.00000064    0.00000315   -0.00000073
     atom    7 type  1   force =    -0.00000262    0.00000001    0.00000262
     atom    8 type  1   force =     0.00000251    0.00000011   -0.00000251
     atom    9 type  1   force =    -0.00000351   -0.00000001    0.00000382
     atom   10 type  1   force =     0.00000373    0.00000004   -0.00000357
     atom   11 type  1   force =     0.00000004   -0.00000375   -0.00000004
     atom   12 type  1   force =     0.00000004    0.00000360   -0.00000004
     atom   13 type  1   force =    -0.00000003   -0.00000342    0.00000003
     atom   14 type  1   force =     0.00000013    0.00000384   -0.00000013
     atom   15 type  1   force =    -0.00000382   -0.00000001    0.00000351
     atom   16 type  1   force =     0.00000357    0.00000004   -0.00000373

     Total force =     0.007278     Total SCF correction =     0.000017


     Computing stress (Cartesian axis) and pressure

          total   stress  (Ry/bohr**3)                   (kbar)     P=       38.06
   0.00025872   0.00000285  -0.00000005           38.06        0.42       -0.01
   0.00000285   0.00025876  -0.00000285            0.42       38.06       -0.42
  -0.00000005  -0.00000285   0.00025872           -0.01       -0.42       38.06

     kinetic stress (kbar)   2267.28     -0.30      0.00
                               -0.30   2267.28      0.30
                                0.00      0.30   2267.28

     local   stress (kbar)     76.17     -3.03      0.00
                               -3.03     76.14      3.03
                                0.00      3.03     76.17

     nonloc. stress (kbar)   1640.16      0.39     -0.00
                                0.39   1640.16     -0.39
                               -0.00     -0.39   1640.16

     hartree stress (kbar)    200.38      0.35      0.00
                                0.35    200.39     -0.35
                                0.00     -0.35    200.38

     exc-cor stress (kbar)   2997.42      0.02     -0.00
                                0.02   2997.42     -0.02
                               -0.00     -0.02   2997.42

     corecor stress (kbar)  -4019.81     -0.05      0.00
                               -0.05  -4019.81      0.05
                                0.00      0.05  -4019.81

     ewald   stress (kbar)  -3123.54      3.03     -0.01
                                3.03  -3123.51     -3.03
                               -0.01     -3.03  -3123.54

     hubbard stress (kbar)      0.00      0.00      0.00
                                0.00      0.00      0.00
                                0.00      0.00      0.00

     DFT-D   stress (kbar)      0.00      0.00      0.00
                                0.00      0.00      0.00
                                0.00      0.00      0.00

     XDM     stress (kbar)      0.00      0.00      0.00
                                0.00      0.00      0.00
                                0.00      0.00      0.00

     dft-nl  stress (kbar)      0.00      0.00      0.00
                                0.00      0.00      0.00
                                0.00      0.00      0.00

     TS-vdW  stress (kbar)      0.00      0.00      0.00
                                0.00      0.00      0.00
                                0.00      0.00      0.00

     MDB     stress (kbar)      0.00      0.00      0.00
                                0.00      0.00      0.00
                                0.00      0.00      0.00

     3D-RISM stress (kbar)      0.00      0.00      0.00
                                0.00      0.00      0.00
                                0.00      0.00      0.00


     Writing all to output data dir ./out/silicon.save/ :
     XML data file, charge density, pseudopotentials, collected wavefunctions

     init_run     :     15.44s CPU     15.59s WALL (       1 calls)
     electrons    :    613.74s CPU    622.26s WALL (       1 calls)
     forces       :      6.04s CPU      6.19s WALL (       1 calls)
     stress       :     21.96s CPU     24.80s WALL (       1 calls)

     Called by init_run:
     wfcinit      :     15.30s CPU     15.44s WALL (       1 calls)
     wfcinit:atom :      0.06s CPU      0.06s WALL (     372 calls)
     wfcinit:wfcr :     14.32s CPU     14.44s WALL (     372 calls)
     potinit      :      0.02s CPU      0.02s WALL (       1 calls)
     hinit0       :      0.03s CPU      0.03s WALL (       1 calls)

     Called by electrons:
     c_bands      :    554.34s CPU    561.62s WALL (      14 calls)
     sum_band     :     58.63s CPU     59.81s WALL (      14 calls)
     v_of_rho     :      0.21s CPU      0.21s WALL (      14 calls)
     v_h          :      0.01s CPU      0.01s WALL (      14 calls)
     v_xc         :      0.22s CPU      0.23s WALL (      16 calls)
     newd         :      0.56s CPU      0.60s WALL (      14 calls)
     mix_rho      :      0.03s CPU      0.03s WALL (      14 calls)

     Called by c_bands:
     init_us_2    :      7.19s CPU      7.26s WALL (   11532 calls)
     cegterg      :    518.49s CPU    525.45s WALL (    5208 calls)

     Called by sum_band:
     sum_band:wei :      0.27s CPU      0.27s WALL (      14 calls)
     sum_band:loo :     57.75s CPU     58.87s WALL (      14 calls)
     sum_band:buf :      0.34s CPU      0.34s WALL (    5208 calls)
     sum_band:ini :      3.32s CPU      3.34s WALL (    5208 calls)
     sum_band:cal :     19.03s CPU     19.37s WALL (    5208 calls)
     sum_band:bec :      0.40s CPU      0.40s WALL (    5208 calls)
     addusdens    :      0.52s CPU      0.55s WALL (      14 calls)
                                        0.00s GPU  (      14 calls)
     addusd:skk   :      0.01s CPU      0.01s WALL (      14 calls)
                                        0.00s GPU  (      14 calls)

     Called by *egterg:
     cdiaghg      :     36.50s CPU     36.96s WALL (   28675 calls)
     cegterg:over :     41.14s CPU     41.76s WALL (   23839 calls)
     cegterg:upda :      8.64s CPU      9.27s WALL (   23839 calls)
     cegterg:last :     14.41s CPU     14.54s WALL (   13576 calls)
     h_psi        :    354.24s CPU    359.95s WALL (   29419 calls)
     s_psi        :     56.44s CPU     55.61s WALL (   29419 calls)
     g_psi        :      0.49s CPU      0.50s WALL (   23839 calls)

     Called by h_psi:
     h_psi:calbec :     82.87s CPU     83.66s WALL (   29419 calls)
     vloc_psi     :    207.03s CPU    211.21s WALL (   29419 calls)
                                        0.00s GPU  (   29419 calls)
     add_vuspsi   :     63.73s CPU     64.42s WALL (   29419 calls)

     General routines
     calbec       :    124.51s CPU    128.37s WALL (   40951 calls)
     fft          :      0.13s CPU      0.14s WALL (     206 calls)
     ffts         :      0.01s CPU      0.01s WALL (      28 calls)
     fftw         :    221.41s CPU    225.84s WALL ( 1449038 calls)
     interpolate  :      0.01s CPU      0.01s WALL (      14 calls)

     Parallel routines

     PWSCF        :  10m57.81s CPU  11m 9.91s WALL


   This run was terminated on:  14: 1:25   7May2026            

=------------------------------------------------------------------------------=
   JOB DONE.
=------------------------------------------------------------------------------=
