
     Program POST-PROC v.7.5 starts on 28Apr2026 at 13:45:40 

     This program is part of the open-source Quantum ESPRESSO suite
     for quantum simulation of materials; please cite
         "P. Giannozzi et al., J. Phys.:Condens. Matter 21 395502 (2009);
         "P. Giannozzi et al., J. Phys.:Condens. Matter 29 465901 (2017);
         "P. Giannozzi et al., J. Chem. Phys. 152 154105 (2020);
          URL http://www.quantum-espresso.org", 
     in publications or presentations arising from this work. More details at
     http://www.quantum-espresso.org/quote

     Parallel version (MPI), running on     6 processors

     MPI processes distributed on     1 nodes
     R & G space division:  proc/nbgrp/npool/nimage =       6
     0 MiB available memory on the printing compute node when the environment starts


     Reading xml data from directory:

     ./out/h2o.save/
     file O.pbe-n-kjpaw_psl.0.1.UPF: wavefunction(s)  2P renormalized

     IMPORTANT: XC functional enforced from input :
     Exchange-correlation= PBE
                           (   1   4   3   4   0   0   0)
     Any further DFT definition will be discarded
     Please, verify this is what you really want


     Parallelization info
     --------------------
     sticks:   dense  smooth     PW     G-vecs:    dense   smooth      PW
     Min        2272    1136    297               199746    70616    9508
     Max        2273    1137    300               199749    70619    9509
     Sum       13637    6817   1789              1198487   423701   57051

     Using Slab Decomposition


     negative rho (up, down):  6.931E-04 0.000E+00

     Calling punch_plot, plot_num =   7

     Plotting k_point =   1  band =  3
     Writing data to file  tmp.pp
     Reading data from file  tmp.pp

     Writing data to be plotted to file h2o_G3.cube
     Plot Type: 3D                     Output format: Gaussian cube

     POST-PROC    :      2.42s CPU      2.61s WALL


   This run was terminated on:  13:45:43  28Apr2026            

=------------------------------------------------------------------------------=
   JOB DONE.
=------------------------------------------------------------------------------=
