
     Program PWSCF v.7.5 starts on  7May2026 at 14:41: 6 

     This program is part of the open-source Quantum ESPRESSO suite
     for quantum simulation of materials; please cite
         "P. Giannozzi et al., J. Phys.:Condens. Matter 21 395502 (2009);
         "P. Giannozzi et al., J. Phys.:Condens. Matter 29 465901 (2017);
         "P. Giannozzi et al., J. Chem. Phys. 152 154105 (2020);
          URL http://www.quantum-espresso.org", 
     in publications or presentations arising from this work. More details at
     http://www.quantum-espresso.org/quote

     Parallel version (MPI), running on     6 processors

     MPI processes distributed on     1 nodes
     0 MiB available memory on the printing compute node when the environment starts

     Waiting for input...
     Reading input from standard input

     Current dimensions of program PWSCF are:
     Max number of different atomic species (ntypx) = 10
     Max number of k-points (npk) =  40000
     Max angular momentum in pseudopotentials (lmaxx) =  4
     file C.pbe-n-kjpaw_psl.1.0.0.UPF: wavefunction(s)  2S 2P renormalized
     Message from routine setup:
     using ibrav=0 with symmetry is DISCOURAGED, use correct ibrav instead

     R & G space division:  proc/nbgrp/npool/nimage =       6
     Subspace diagonalization in iterative solution of the eigenvalue problem:
     a serial algorithm will be used


     Parallelization info
     --------------------
     sticks:   dense  smooth     PW     G-vecs:    dense   smooth      PW
     Min          91      43     14                 5343     1875     350
     Max          92      45     15                 5349     1883     363
     Sum         547     265     85                32075    11271    2123

     Using Slab Decomposition



     bravais-lattice index     =            0
     lattice parameter (alat)  =       4.6625  a.u.
     unit-cell volume          =     277.6091 (a.u.)^3
     number of atoms/cell      =            4
     number of atomic types    =            1
     number of electrons       =        16.00
     number of Kohn-Sham states=           12
     kinetic-energy cutoff     =      45.0000  Ry
     charge density cutoff     =     360.0000  Ry
     scf convergence threshold =      8.0E-10
     mixing beta               =       0.4000
     number of iterations used =            8  plain     mixing
     Exchange-correlation= SLA  PW   PBX  PBC
                           (   1   4   3   4   0   0   0)

     celldm(1)=   4.662505  celldm(2)=   0.000000  celldm(3)=   0.000000
     celldm(4)=   0.000000  celldm(5)=   0.000000  celldm(6)=   0.000000

     crystal axes: (cart. coord. in units of alat)
               a(1) = (   0.500000  -0.866025   0.000000 )  
               a(2) = (   0.500000   0.866025   0.000000 )  
               a(3) = (   0.000000   0.000000   3.162607 )  

     reciprocal axes: (cart. coord. in units 2 pi/alat)
               b(1) = (  1.000000 -0.577350  0.000000 )  
               b(2) = (  1.000000  0.577350 -0.000000 )  
               b(3) = ( -0.000000  0.000000  0.316195 )  


     PseudoPot. # 1 for C  read from file:
     ./pseudo/C.pbe-n-kjpaw_psl.1.0.0.UPF
     MD5 check sum: 5d2aebdfa2cae82b50a7e79e9516da0f
     Pseudo is Projector augmented-wave + core cor, Zval =  4.0
     Generated using "atomic" code by A. Dal Corso  v.5.1
     Shape of augmentation charge: PSQ
     Using radial grid of 1073 points,  4 beta functions with: 
                l(1) =   0
                l(2) =   0
                l(3) =   1
                l(4) =   1
     Q(r) pseudized with 0 coefficients 


     atomic species   valence    mass     pseudopotential
     C                 4.00    12.01070     C ( 1.00)

     24 Sym. Ops., with inversion, found (12 have fractional translation)


                                    s                        frac. trans.

      isym =  1     identity                                     

 cryst.   s( 1) = (     1          0          0      )
                  (     0          1          0      )
                  (     0          0          1      )

 cart.    s( 1) = (  1.0000000 -0.0000000  0.0000000 )
                  ( -0.0000000  1.0000000  0.0000000 )
                  (  0.0000000  0.0000000  1.0000000 )


      isym =  2     180 deg rotation - cart. axis [0,0,1]        

 cryst.   s( 2) = (    -1          0          0      )    f =(  0.0000000 )
                  (     0         -1          0      )       (  0.0000000 )
                  (     0          0          1      )       ( -0.5000000 )

 cart.    s( 2) = ( -1.0000000  0.0000000  0.0000000 )    f =(  0.0000000 )
                  (  0.0000000 -1.0000000  0.0000000 )       (  0.0000000 )
                  (  0.0000000  0.0000000  1.0000000 )       ( -1.5813036 )


      isym =  3     180 deg rotation - cart. axis [0,1,0]        

 cryst.   s( 3) = (     0         -1          0      )    f =(  0.0000000 )
                  (    -1          0          0      )       (  0.0000000 )
                  (     0          0         -1      )       (  0.5000000 )

 cart.    s( 3) = ( -1.0000000 -0.0000000  0.0000000 )    f =(  0.0000000 )
                  (  0.0000000  1.0000000  0.0000000 )       (  0.0000000 )
                  (  0.0000000  0.0000000 -1.0000000 )       (  1.5813036 )


      isym =  4     180 deg rotation - cart. axis [1,0,0]        

 cryst.   s( 4) = (     0          1          0      )
                  (     1          0          0      )
                  (     0          0         -1      )

 cart.    s( 4) = (  1.0000000  0.0000000  0.0000000 )
                  ( -0.0000000 -1.0000000  0.0000000 )
                  (  0.0000000  0.0000000 -1.0000000 )


      isym =  5      60 deg rotation - cryst. axis [0,0,1]       

 cryst.   s( 5) = (     1          1          0      )    f =(  0.0000000 )
                  (    -1          0          0      )       (  0.0000000 )
                  (     0          0          1      )       ( -0.5000000 )

 cart.    s( 5) = (  0.5000000 -0.8660254  0.0000000 )    f =(  0.0000000 )
                  (  0.8660254  0.5000000  0.0000000 )       (  0.0000000 )
                  (  0.0000000  0.0000000  1.0000000 )       ( -1.5813036 )


      isym =  6      60 deg rotation - cryst. axis [0,0,-1]      

 cryst.   s( 6) = (     0         -1          0      )    f =(  0.0000000 )
                  (     1          1          0      )       (  0.0000000 )
                  (     0          0          1      )       ( -0.5000000 )

 cart.    s( 6) = (  0.5000000  0.8660254  0.0000000 )    f =(  0.0000000 )
                  ( -0.8660254  0.5000000  0.0000000 )       (  0.0000000 )
                  (  0.0000000  0.0000000  1.0000000 )       ( -1.5813036 )


      isym =  7     120 deg rotation - cryst. axis [0,0,1]       

 cryst.   s( 7) = (     0          1          0      )
                  (    -1         -1          0      )
                  (     0          0          1      )

 cart.    s( 7) = ( -0.5000000 -0.8660254  0.0000000 )
                  (  0.8660254 -0.5000000  0.0000000 )
                  (  0.0000000  0.0000000  1.0000000 )


      isym =  8     120 deg rotation - cryst. axis [0,0,-1]      

 cryst.   s( 8) = (    -1         -1          0      )
                  (     1          0          0      )
                  (     0          0          1      )

 cart.    s( 8) = ( -0.5000000  0.8660254  0.0000000 )
                  ( -0.8660254 -0.5000000  0.0000000 )
                  (  0.0000000  0.0000000  1.0000000 )


      isym =  9     180 deg rotation - cryst. axis [1,-1,0]      

 cryst.   s( 9) = (     1          1          0      )    f =(  0.0000000 )
                  (     0         -1          0      )       (  0.0000000 )
                  (     0          0         -1      )       (  0.5000000 )

 cart.    s( 9) = (  0.5000000 -0.8660254  0.0000000 )    f =(  0.0000000 )
                  ( -0.8660254 -0.5000000  0.0000000 )       (  0.0000000 )
                  (  0.0000000  0.0000000 -1.0000000 )       (  1.5813036 )


      isym = 10     180 deg rotation - cryst. axis [2,1,0]       

 cryst.   s(10) = (    -1          0          0      )    f =(  0.0000000 )
                  (     1          1          0      )       (  0.0000000 )
                  (     0          0         -1      )       (  0.5000000 )

 cart.    s(10) = (  0.5000000  0.8660254  0.0000000 )    f =(  0.0000000 )
                  (  0.8660254 -0.5000000  0.0000000 )       (  0.0000000 )
                  (  0.0000000  0.0000000 -1.0000000 )       (  1.5813036 )


      isym = 11     180 deg rotation - cryst. axis [0,1,0]       

 cryst.   s(11) = (     1          0          0      )
                  (    -1         -1          0      )
                  (     0          0         -1      )

 cart.    s(11) = ( -0.5000000 -0.8660254  0.0000000 )
                  ( -0.8660254  0.5000000  0.0000000 )
                  (  0.0000000  0.0000000 -1.0000000 )


      isym = 12     180 deg rotation - cryst. axis [1,1,0]       

 cryst.   s(12) = (    -1         -1          0      )
                  (     0          1          0      )
                  (     0          0         -1      )

 cart.    s(12) = ( -0.5000000  0.8660254  0.0000000 )
                  (  0.8660254  0.5000000  0.0000000 )
                  (  0.0000000  0.0000000 -1.0000000 )


      isym = 13     inversion                                    

 cryst.   s(13) = (    -1          0          0      )
                  (     0         -1          0      )
                  (     0          0         -1      )

 cart.    s(13) = ( -1.0000000  0.0000000  0.0000000 )
                  (  0.0000000 -1.0000000  0.0000000 )
                  (  0.0000000  0.0000000 -1.0000000 )


      isym = 14     inv. 180 deg rotation - cart. axis [0,0,1]   

 cryst.   s(14) = (     1          0          0      )    f =(  0.0000000 )
                  (     0          1          0      )       (  0.0000000 )
                  (     0          0         -1      )       (  0.5000000 )

 cart.    s(14) = (  1.0000000 -0.0000000  0.0000000 )    f =(  0.0000000 )
                  ( -0.0000000  1.0000000  0.0000000 )       (  0.0000000 )
                  (  0.0000000  0.0000000 -1.0000000 )       (  1.5813036 )


      isym = 15     inv. 180 deg rotation - cart. axis [0,1,0]   

 cryst.   s(15) = (     0          1          0      )    f =(  0.0000000 )
                  (     1          0          0      )       (  0.0000000 )
                  (     0          0          1      )       ( -0.5000000 )

 cart.    s(15) = (  1.0000000  0.0000000  0.0000000 )    f =(  0.0000000 )
                  ( -0.0000000 -1.0000000  0.0000000 )       (  0.0000000 )
                  (  0.0000000  0.0000000  1.0000000 )       ( -1.5813036 )


      isym = 16     inv. 180 deg rotation - cart. axis [1,0,0]   

 cryst.   s(16) = (     0         -1          0      )
                  (    -1          0          0      )
                  (     0          0          1      )

 cart.    s(16) = ( -1.0000000 -0.0000000  0.0000000 )
                  (  0.0000000  1.0000000  0.0000000 )
                  (  0.0000000  0.0000000  1.0000000 )


      isym = 17     inv.  60 deg rotation - cryst. axis [0,0,1]  

 cryst.   s(17) = (    -1         -1          0      )    f =(  0.0000000 )
                  (     1          0          0      )       (  0.0000000 )
                  (     0          0         -1      )       (  0.5000000 )

 cart.    s(17) = ( -0.5000000  0.8660254  0.0000000 )    f =(  0.0000000 )
                  ( -0.8660254 -0.5000000  0.0000000 )       (  0.0000000 )
                  (  0.0000000  0.0000000 -1.0000000 )       (  1.5813036 )


      isym = 18     inv.  60 deg rotation - cryst. axis [0,0,-1] 

 cryst.   s(18) = (     0          1          0      )    f =(  0.0000000 )
                  (    -1         -1          0      )       (  0.0000000 )
                  (     0          0         -1      )       (  0.5000000 )

 cart.    s(18) = ( -0.5000000 -0.8660254  0.0000000 )    f =(  0.0000000 )
                  (  0.8660254 -0.5000000  0.0000000 )       (  0.0000000 )
                  (  0.0000000  0.0000000 -1.0000000 )       (  1.5813036 )


      isym = 19     inv. 120 deg rotation - cryst. axis [0,0,1]  

 cryst.   s(19) = (     0         -1          0      )
                  (     1          1          0      )
                  (     0          0         -1      )

 cart.    s(19) = (  0.5000000  0.8660254  0.0000000 )
                  ( -0.8660254  0.5000000  0.0000000 )
                  (  0.0000000  0.0000000 -1.0000000 )


      isym = 20     inv. 120 deg rotation - cryst. axis [0,0,-1] 

 cryst.   s(20) = (     1          1          0      )
                  (    -1          0          0      )
                  (     0          0         -1      )

 cart.    s(20) = (  0.5000000 -0.8660254  0.0000000 )
                  (  0.8660254  0.5000000  0.0000000 )
                  (  0.0000000  0.0000000 -1.0000000 )


      isym = 21     inv. 180 deg rotation - cryst. axis [1,-1,0] 

 cryst.   s(21) = (    -1         -1          0      )    f =(  0.0000000 )
                  (     0          1          0      )       (  0.0000000 )
                  (     0          0          1      )       ( -0.5000000 )

 cart.    s(21) = ( -0.5000000  0.8660254  0.0000000 )    f =(  0.0000000 )
                  (  0.8660254  0.5000000  0.0000000 )       (  0.0000000 )
                  (  0.0000000  0.0000000  1.0000000 )       ( -1.5813036 )


      isym = 22     inv. 180 deg rotation - cryst. axis [2,1,0]  

 cryst.   s(22) = (     1          0          0      )    f =(  0.0000000 )
                  (    -1         -1          0      )       (  0.0000000 )
                  (     0          0          1      )       ( -0.5000000 )

 cart.    s(22) = ( -0.5000000 -0.8660254  0.0000000 )    f =(  0.0000000 )
                  ( -0.8660254  0.5000000  0.0000000 )       (  0.0000000 )
                  (  0.0000000  0.0000000  1.0000000 )       ( -1.5813036 )


      isym = 23     inv. 180 deg rotation - cryst. axis [0,1,0]  

 cryst.   s(23) = (    -1          0          0      )
                  (     1          1          0      )
                  (     0          0          1      )

 cart.    s(23) = (  0.5000000  0.8660254  0.0000000 )
                  (  0.8660254 -0.5000000  0.0000000 )
                  (  0.0000000  0.0000000  1.0000000 )


      isym = 24     inv. 180 deg rotation - cryst. axis [1,1,0]  

 cryst.   s(24) = (     1          1          0      )
                  (     0         -1          0      )
                  (     0          0          1      )

 cart.    s(24) = (  0.5000000 -0.8660254  0.0000000 )
                  ( -0.8660254 -0.5000000  0.0000000 )
                  (  0.0000000  0.0000000  1.0000000 )


   Cartesian axes

     site n.     atom                  positions (alat units)
         1        C      tau(   1) = (   0.0000000   0.0000000   0.7906518  )
         2        C      tau(   2) = (   0.0000000   0.0000000   2.3719554  )
         3        C      tau(   3) = (   0.5000000   0.2886751   0.7906518  )
         4        C      tau(   4) = (   0.5000000  -0.2886751   2.3719554  )

   Crystallographic axes

     site n.     atom                  positions (cryst. coord.)
         1        C      tau(   1) = (  0.0000000  0.0000000  0.2500000  )
         2        C      tau(   2) = (  0.0000000  0.0000000  0.7500000  )
         3        C      tau(   3) = (  0.3333333  0.6666667  0.2500000  )
         4        C      tau(   4) = (  0.6666667  0.3333333  0.7500000  )

     number of k points=   176  Marzari-Vanderbilt smearing, width (Ry)=  0.0200
                       cart. coord. in units 2pi/alat
        k(    1) = (   0.0000000   0.0000000   0.0000000), wk =   0.0008333
        k(    2) = (   0.0000000   0.0000000   0.0526991), wk =   0.0016667
        k(    3) = (   0.0000000   0.0000000   0.1053983), wk =   0.0016667
        k(    4) = (   0.0000000   0.0000000  -0.1580974), wk =   0.0008333
        k(    5) = (   0.0500000   0.0288675   0.0000000), wk =   0.0050000
        k(    6) = (   0.0500000   0.0288675   0.0526991), wk =   0.0100000
        k(    7) = (   0.0500000   0.0288675   0.1053983), wk =   0.0100000
        k(    8) = (   0.0500000   0.0288675  -0.1580974), wk =   0.0050000
        k(    9) = (   0.1000000   0.0577350   0.0000000), wk =   0.0050000
        k(   10) = (   0.1000000   0.0577350   0.0526991), wk =   0.0100000
        k(   11) = (   0.1000000   0.0577350   0.1053983), wk =   0.0100000
        k(   12) = (   0.1000000   0.0577350  -0.1580974), wk =   0.0050000
        k(   13) = (   0.1500000   0.0866025   0.0000000), wk =   0.0050000
        k(   14) = (   0.1500000   0.0866025   0.0526991), wk =   0.0100000
        k(   15) = (   0.1500000   0.0866025   0.1053983), wk =   0.0100000
        k(   16) = (   0.1500000   0.0866025  -0.1580974), wk =   0.0050000
        k(   17) = (   0.2000000   0.1154701   0.0000000), wk =   0.0050000
        k(   18) = (   0.2000000   0.1154701   0.0526991), wk =   0.0100000
        k(   19) = (   0.2000000   0.1154701   0.1053983), wk =   0.0100000
        k(   20) = (   0.2000000   0.1154701  -0.1580974), wk =   0.0050000
        k(   21) = (   0.2500000   0.1443376   0.0000000), wk =   0.0050000
        k(   22) = (   0.2500000   0.1443376   0.0526991), wk =   0.0100000
        k(   23) = (   0.2500000   0.1443376   0.1053983), wk =   0.0100000
        k(   24) = (   0.2500000   0.1443376  -0.1580974), wk =   0.0050000
        k(   25) = (   0.3000000   0.1732051   0.0000000), wk =   0.0050000
        k(   26) = (   0.3000000   0.1732051   0.0526991), wk =   0.0100000
        k(   27) = (   0.3000000   0.1732051   0.1053983), wk =   0.0100000
        k(   28) = (   0.3000000   0.1732051  -0.1580974), wk =   0.0050000
        k(   29) = (   0.3500000   0.2020726   0.0000000), wk =   0.0050000
        k(   30) = (   0.3500000   0.2020726   0.0526991), wk =   0.0100000
        k(   31) = (   0.3500000   0.2020726   0.1053983), wk =   0.0100000
        k(   32) = (   0.3500000   0.2020726  -0.1580974), wk =   0.0050000
        k(   33) = (   0.4000000   0.2309401   0.0000000), wk =   0.0050000
        k(   34) = (   0.4000000   0.2309401   0.0526991), wk =   0.0100000
        k(   35) = (   0.4000000   0.2309401   0.1053983), wk =   0.0100000
        k(   36) = (   0.4000000   0.2309401  -0.1580974), wk =   0.0050000
        k(   37) = (   0.4500000   0.2598076   0.0000000), wk =   0.0050000
        k(   38) = (   0.4500000   0.2598076   0.0526991), wk =   0.0100000
        k(   39) = (   0.4500000   0.2598076   0.1053983), wk =   0.0100000
        k(   40) = (   0.4500000   0.2598076  -0.1580974), wk =   0.0050000
        k(   41) = (  -0.5000000  -0.2886751   0.0000000), wk =   0.0025000
        k(   42) = (  -0.5000000  -0.2886751   0.0526991), wk =   0.0050000
        k(   43) = (  -0.5000000  -0.2886751   0.1053983), wk =   0.0050000
        k(   44) = (  -0.5000000  -0.2886751  -0.1580974), wk =   0.0025000
        k(   45) = (   0.1000000   0.0000000   0.0000000), wk =   0.0050000
        k(   46) = (   0.1000000   0.0000000   0.0526991), wk =   0.0100000
        k(   47) = (   0.1000000   0.0000000   0.1053983), wk =   0.0100000
        k(   48) = (   0.1000000   0.0000000  -0.1580974), wk =   0.0050000
        k(   49) = (   0.1500000   0.0288675   0.0000000), wk =   0.0100000
        k(   50) = (   0.1500000   0.0288675   0.0526991), wk =   0.0200000
        k(   51) = (   0.1500000   0.0288675   0.1053983), wk =   0.0200000
        k(   52) = (   0.1500000   0.0288675  -0.1580974), wk =   0.0100000
        k(   53) = (   0.2000000   0.0577350   0.0000000), wk =   0.0100000
        k(   54) = (   0.2000000   0.0577350   0.0526991), wk =   0.0200000
        k(   55) = (   0.2000000   0.0577350   0.1053983), wk =   0.0200000
        k(   56) = (   0.2000000   0.0577350  -0.1580974), wk =   0.0100000
        k(   57) = (   0.2500000   0.0866025   0.0000000), wk =   0.0100000
        k(   58) = (   0.2500000   0.0866025   0.0526991), wk =   0.0200000
        k(   59) = (   0.2500000   0.0866025   0.1053983), wk =   0.0200000
        k(   60) = (   0.2500000   0.0866025  -0.1580974), wk =   0.0100000
        k(   61) = (   0.3000000   0.1154701   0.0000000), wk =   0.0100000
        k(   62) = (   0.3000000   0.1154701   0.0526991), wk =   0.0200000
        k(   63) = (   0.3000000   0.1154701   0.1053983), wk =   0.0200000
        k(   64) = (   0.3000000   0.1154701  -0.1580974), wk =   0.0100000
        k(   65) = (   0.3500000   0.1443376   0.0000000), wk =   0.0100000
        k(   66) = (   0.3500000   0.1443376   0.0526991), wk =   0.0200000
        k(   67) = (   0.3500000   0.1443376   0.1053983), wk =   0.0200000
        k(   68) = (   0.3500000   0.1443376  -0.1580974), wk =   0.0100000
        k(   69) = (   0.4000000   0.1732051   0.0000000), wk =   0.0100000
        k(   70) = (   0.4000000   0.1732051   0.0526991), wk =   0.0200000
        k(   71) = (   0.4000000   0.1732051   0.1053983), wk =   0.0200000
        k(   72) = (   0.4000000   0.1732051  -0.1580974), wk =   0.0100000
        k(   73) = (   0.4500000   0.2020726   0.0000000), wk =   0.0100000
        k(   74) = (   0.4500000   0.2020726   0.0526991), wk =   0.0200000
        k(   75) = (   0.4500000   0.2020726   0.1053983), wk =   0.0200000
        k(   76) = (   0.4500000   0.2020726  -0.1580974), wk =   0.0100000
        k(   77) = (   0.5000000   0.2309401   0.0000000), wk =   0.0100000
        k(   78) = (   0.5000000   0.2309401   0.0526991), wk =   0.0200000
        k(   79) = (   0.5000000   0.2309401   0.1053983), wk =   0.0200000
        k(   80) = (   0.5000000   0.2309401  -0.1580974), wk =   0.0100000
        k(   81) = (   0.2000000   0.0000000   0.0000000), wk =   0.0050000
        k(   82) = (   0.2000000   0.0000000   0.0526991), wk =   0.0100000
        k(   83) = (   0.2000000   0.0000000   0.1053983), wk =   0.0100000
        k(   84) = (   0.2000000   0.0000000  -0.1580974), wk =   0.0050000
        k(   85) = (   0.2500000   0.0288675   0.0000000), wk =   0.0100000
        k(   86) = (   0.2500000   0.0288675   0.0526991), wk =   0.0200000
        k(   87) = (   0.2500000   0.0288675   0.1053983), wk =   0.0200000
        k(   88) = (   0.2500000   0.0288675  -0.1580974), wk =   0.0100000
        k(   89) = (   0.3000000   0.0577350   0.0000000), wk =   0.0100000
        k(   90) = (   0.3000000   0.0577350   0.0526991), wk =   0.0200000
        k(   91) = (   0.3000000   0.0577350   0.1053983), wk =   0.0200000
        k(   92) = (   0.3000000   0.0577350  -0.1580974), wk =   0.0100000
        k(   93) = (   0.3500000   0.0866025   0.0000000), wk =   0.0100000
        k(   94) = (   0.3500000   0.0866025   0.0526991), wk =   0.0200000
        k(   95) = (   0.3500000   0.0866025   0.1053983), wk =   0.0200000
        k(   96) = (   0.3500000   0.0866025  -0.1580974), wk =   0.0100000
        k(   97) = (   0.4000000   0.1154701   0.0000000), wk =   0.0100000
        k(   98) = (   0.4000000   0.1154701   0.0526991), wk =   0.0200000
        k(   99) = (   0.4000000   0.1154701   0.1053983), wk =   0.0200000
        k(  100) = (   0.4000000   0.1154701  -0.1580974), wk =   0.0100000
        k(  101) = (   0.4500000   0.1443376   0.0000000), wk =   0.0100000
        k(  102) = (   0.4500000   0.1443376   0.0526991), wk =   0.0200000
        k(  103) = (   0.4500000   0.1443376   0.1053983), wk =   0.0200000
        k(  104) = (   0.4500000   0.1443376  -0.1580974), wk =   0.0100000
        k(  105) = (   0.5000000   0.1732051   0.0000000), wk =   0.0100000
        k(  106) = (   0.5000000   0.1732051   0.0526991), wk =   0.0200000
        k(  107) = (   0.5000000   0.1732051   0.1053983), wk =   0.0200000
        k(  108) = (   0.5000000   0.1732051  -0.1580974), wk =   0.0100000
        k(  109) = (   0.5500000   0.2020726   0.0000000), wk =   0.0050000
        k(  110) = (   0.5500000   0.2020726   0.0526991), wk =   0.0100000
        k(  111) = (   0.5500000   0.2020726   0.1053983), wk =   0.0100000
        k(  112) = (   0.5500000   0.2020726  -0.1580974), wk =   0.0050000
        k(  113) = (   0.3000000  -0.0000000   0.0000000), wk =   0.0050000
        k(  114) = (   0.3000000  -0.0000000   0.0526991), wk =   0.0100000
        k(  115) = (   0.3000000  -0.0000000   0.1053983), wk =   0.0100000
        k(  116) = (   0.3000000  -0.0000000  -0.1580974), wk =   0.0050000
        k(  117) = (   0.3500000   0.0288675   0.0000000), wk =   0.0100000
        k(  118) = (   0.3500000   0.0288675   0.0526991), wk =   0.0200000
        k(  119) = (   0.3500000   0.0288675   0.1053983), wk =   0.0200000
        k(  120) = (   0.3500000   0.0288675  -0.1580974), wk =   0.0100000
        k(  121) = (   0.4000000   0.0577350   0.0000000), wk =   0.0100000
        k(  122) = (   0.4000000   0.0577350   0.0526991), wk =   0.0200000
        k(  123) = (   0.4000000   0.0577350   0.1053983), wk =   0.0200000
        k(  124) = (   0.4000000   0.0577350  -0.1580974), wk =   0.0100000
        k(  125) = (   0.4500000   0.0866025   0.0000000), wk =   0.0100000
        k(  126) = (   0.4500000   0.0866025   0.0526991), wk =   0.0200000
        k(  127) = (   0.4500000   0.0866025   0.1053983), wk =   0.0200000
        k(  128) = (   0.4500000   0.0866025  -0.1580974), wk =   0.0100000
        k(  129) = (   0.5000000   0.1154701   0.0000000), wk =   0.0100000
        k(  130) = (   0.5000000   0.1154701   0.0526991), wk =   0.0200000
        k(  131) = (   0.5000000   0.1154701   0.1053983), wk =   0.0200000
        k(  132) = (   0.5000000   0.1154701  -0.1580974), wk =   0.0100000
        k(  133) = (   0.5500000   0.1443376   0.0000000), wk =   0.0100000
        k(  134) = (   0.5500000   0.1443376   0.0526991), wk =   0.0200000
        k(  135) = (   0.5500000   0.1443376   0.1053983), wk =   0.0200000
        k(  136) = (   0.5500000   0.1443376  -0.1580974), wk =   0.0100000
        k(  137) = (   0.4000000   0.0000000   0.0000000), wk =   0.0050000
        k(  138) = (   0.4000000   0.0000000   0.0526991), wk =   0.0100000
        k(  139) = (   0.4000000   0.0000000   0.1053983), wk =   0.0100000
        k(  140) = (   0.4000000   0.0000000  -0.1580974), wk =   0.0050000
        k(  141) = (   0.4500000   0.0288675   0.0000000), wk =   0.0100000
        k(  142) = (   0.4500000   0.0288675   0.0526991), wk =   0.0200000
        k(  143) = (   0.4500000   0.0288675   0.1053983), wk =   0.0200000
        k(  144) = (   0.4500000   0.0288675  -0.1580974), wk =   0.0100000
        k(  145) = (   0.5000000   0.0577350   0.0000000), wk =   0.0100000
        k(  146) = (   0.5000000   0.0577350   0.0526991), wk =   0.0200000
        k(  147) = (   0.5000000   0.0577350   0.1053983), wk =   0.0200000
        k(  148) = (   0.5000000   0.0577350  -0.1580974), wk =   0.0100000
        k(  149) = (   0.5500000   0.0866025   0.0000000), wk =   0.0100000
        k(  150) = (   0.5500000   0.0866025   0.0526991), wk =   0.0200000
        k(  151) = (   0.5500000   0.0866025   0.1053983), wk =   0.0200000
        k(  152) = (   0.5500000   0.0866025  -0.1580974), wk =   0.0100000
        k(  153) = (   0.6000000   0.1154701   0.0000000), wk =   0.0050000
        k(  154) = (   0.6000000   0.1154701   0.0526991), wk =   0.0100000
        k(  155) = (   0.6000000   0.1154701   0.1053983), wk =   0.0100000
        k(  156) = (   0.6000000   0.1154701  -0.1580974), wk =   0.0050000
        k(  157) = (   0.5000000   0.0000000   0.0000000), wk =   0.0050000
        k(  158) = (   0.5000000   0.0000000   0.0526991), wk =   0.0100000
        k(  159) = (   0.5000000   0.0000000   0.1053983), wk =   0.0100000
        k(  160) = (   0.5000000   0.0000000  -0.1580974), wk =   0.0050000
        k(  161) = (   0.5500000   0.0288675   0.0000000), wk =   0.0100000
        k(  162) = (   0.5500000   0.0288675   0.0526991), wk =   0.0200000
        k(  163) = (   0.5500000   0.0288675   0.1053983), wk =   0.0200000
        k(  164) = (   0.5500000   0.0288675  -0.1580974), wk =   0.0100000
        k(  165) = (   0.6000000   0.0577350   0.0000000), wk =   0.0100000
        k(  166) = (   0.6000000   0.0577350   0.0526991), wk =   0.0200000
        k(  167) = (   0.6000000   0.0577350   0.1053983), wk =   0.0200000
        k(  168) = (   0.6000000   0.0577350  -0.1580974), wk =   0.0100000
        k(  169) = (   0.6000000  -0.0000000   0.0000000), wk =   0.0050000
        k(  170) = (   0.6000000  -0.0000000   0.0526991), wk =   0.0100000
        k(  171) = (   0.6000000  -0.0000000   0.1053983), wk =   0.0100000
        k(  172) = (   0.6000000  -0.0000000  -0.1580974), wk =   0.0050000
        k(  173) = (   0.6500000   0.0288675   0.0000000), wk =   0.0050000
        k(  174) = (   0.6500000   0.0288675   0.0526991), wk =   0.0100000
        k(  175) = (   0.6500000   0.0288675   0.1053983), wk =   0.0100000
        k(  176) = (   0.6500000   0.0288675  -0.1580974), wk =   0.0050000

                       cryst. coord.
        k(    1) = (   0.0000000   0.0000000   0.0000000), wk =   0.0008333
        k(    2) = (   0.0000000   0.0000000   0.1666667), wk =   0.0016667
        k(    3) = (   0.0000000   0.0000000   0.3333333), wk =   0.0016667
        k(    4) = (   0.0000000   0.0000000  -0.5000000), wk =   0.0008333
        k(    5) = (   0.0000000   0.0500000   0.0000000), wk =   0.0050000
        k(    6) = (   0.0000000   0.0500000   0.1666667), wk =   0.0100000
        k(    7) = (   0.0000000   0.0500000   0.3333333), wk =   0.0100000
        k(    8) = (   0.0000000   0.0500000  -0.5000000), wk =   0.0050000
        k(    9) = (   0.0000000   0.1000000   0.0000000), wk =   0.0050000
        k(   10) = (   0.0000000   0.1000000   0.1666667), wk =   0.0100000
        k(   11) = (   0.0000000   0.1000000   0.3333333), wk =   0.0100000
        k(   12) = (   0.0000000   0.1000000  -0.5000000), wk =   0.0050000
        k(   13) = (   0.0000000   0.1500000   0.0000000), wk =   0.0050000
        k(   14) = (   0.0000000   0.1500000   0.1666667), wk =   0.0100000
        k(   15) = (   0.0000000   0.1500000   0.3333333), wk =   0.0100000
        k(   16) = (   0.0000000   0.1500000  -0.5000000), wk =   0.0050000
        k(   17) = (   0.0000000   0.2000000   0.0000000), wk =   0.0050000
        k(   18) = (   0.0000000   0.2000000   0.1666667), wk =   0.0100000
        k(   19) = (   0.0000000   0.2000000   0.3333333), wk =   0.0100000
        k(   20) = (   0.0000000   0.2000000  -0.5000000), wk =   0.0050000
        k(   21) = (   0.0000000   0.2500000   0.0000000), wk =   0.0050000
        k(   22) = (   0.0000000   0.2500000   0.1666667), wk =   0.0100000
        k(   23) = (   0.0000000   0.2500000   0.3333333), wk =   0.0100000
        k(   24) = (   0.0000000   0.2500000  -0.5000000), wk =   0.0050000
        k(   25) = (   0.0000000   0.3000000   0.0000000), wk =   0.0050000
        k(   26) = (   0.0000000   0.3000000   0.1666667), wk =   0.0100000
        k(   27) = (   0.0000000   0.3000000   0.3333333), wk =   0.0100000
        k(   28) = (   0.0000000   0.3000000  -0.5000000), wk =   0.0050000
        k(   29) = (   0.0000000   0.3500000   0.0000000), wk =   0.0050000
        k(   30) = (   0.0000000   0.3500000   0.1666667), wk =   0.0100000
        k(   31) = (   0.0000000   0.3500000   0.3333333), wk =   0.0100000
        k(   32) = (   0.0000000   0.3500000  -0.5000000), wk =   0.0050000
        k(   33) = (   0.0000000   0.4000000   0.0000000), wk =   0.0050000
        k(   34) = (   0.0000000   0.4000000   0.1666667), wk =   0.0100000
        k(   35) = (   0.0000000   0.4000000   0.3333333), wk =   0.0100000
        k(   36) = (   0.0000000   0.4000000  -0.5000000), wk =   0.0050000
        k(   37) = (   0.0000000   0.4500000   0.0000000), wk =   0.0050000
        k(   38) = (   0.0000000   0.4500000   0.1666667), wk =   0.0100000
        k(   39) = (   0.0000000   0.4500000   0.3333333), wk =   0.0100000
        k(   40) = (   0.0000000   0.4500000  -0.5000000), wk =   0.0050000
        k(   41) = (  -0.0000000  -0.5000000   0.0000000), wk =   0.0025000
        k(   42) = (  -0.0000000  -0.5000000   0.1666667), wk =   0.0050000
        k(   43) = (  -0.0000000  -0.5000000   0.3333333), wk =   0.0050000
        k(   44) = (  -0.0000000  -0.5000000  -0.5000000), wk =   0.0025000
        k(   45) = (   0.0500000   0.0500000   0.0000000), wk =   0.0050000
        k(   46) = (   0.0500000   0.0500000   0.1666667), wk =   0.0100000
        k(   47) = (   0.0500000   0.0500000   0.3333333), wk =   0.0100000
        k(   48) = (   0.0500000   0.0500000  -0.5000000), wk =   0.0050000
        k(   49) = (   0.0500000   0.1000000   0.0000000), wk =   0.0100000
        k(   50) = (   0.0500000   0.1000000   0.1666667), wk =   0.0200000
        k(   51) = (   0.0500000   0.1000000   0.3333333), wk =   0.0200000
        k(   52) = (   0.0500000   0.1000000  -0.5000000), wk =   0.0100000
        k(   53) = (   0.0500000   0.1500000   0.0000000), wk =   0.0100000
        k(   54) = (   0.0500000   0.1500000   0.1666667), wk =   0.0200000
        k(   55) = (   0.0500000   0.1500000   0.3333333), wk =   0.0200000
        k(   56) = (   0.0500000   0.1500000  -0.5000000), wk =   0.0100000
        k(   57) = (   0.0500000   0.2000000   0.0000000), wk =   0.0100000
        k(   58) = (   0.0500000   0.2000000   0.1666667), wk =   0.0200000
        k(   59) = (   0.0500000   0.2000000   0.3333333), wk =   0.0200000
        k(   60) = (   0.0500000   0.2000000  -0.5000000), wk =   0.0100000
        k(   61) = (   0.0500000   0.2500000   0.0000000), wk =   0.0100000
        k(   62) = (   0.0500000   0.2500000   0.1666667), wk =   0.0200000
        k(   63) = (   0.0500000   0.2500000   0.3333333), wk =   0.0200000
        k(   64) = (   0.0500000   0.2500000  -0.5000000), wk =   0.0100000
        k(   65) = (   0.0500000   0.3000000   0.0000000), wk =   0.0100000
        k(   66) = (   0.0500000   0.3000000   0.1666667), wk =   0.0200000
        k(   67) = (   0.0500000   0.3000000   0.3333333), wk =   0.0200000
        k(   68) = (   0.0500000   0.3000000  -0.5000000), wk =   0.0100000
        k(   69) = (   0.0500000   0.3500000   0.0000000), wk =   0.0100000
        k(   70) = (   0.0500000   0.3500000   0.1666667), wk =   0.0200000
        k(   71) = (   0.0500000   0.3500000   0.3333333), wk =   0.0200000
        k(   72) = (   0.0500000   0.3500000  -0.5000000), wk =   0.0100000
        k(   73) = (   0.0500000   0.4000000   0.0000000), wk =   0.0100000
        k(   74) = (   0.0500000   0.4000000   0.1666667), wk =   0.0200000
        k(   75) = (   0.0500000   0.4000000   0.3333333), wk =   0.0200000
        k(   76) = (   0.0500000   0.4000000  -0.5000000), wk =   0.0100000
        k(   77) = (   0.0500000   0.4500000   0.0000000), wk =   0.0100000
        k(   78) = (   0.0500000   0.4500000   0.1666667), wk =   0.0200000
        k(   79) = (   0.0500000   0.4500000   0.3333333), wk =   0.0200000
        k(   80) = (   0.0500000   0.4500000  -0.5000000), wk =   0.0100000
        k(   81) = (   0.1000000   0.1000000   0.0000000), wk =   0.0050000
        k(   82) = (   0.1000000   0.1000000   0.1666667), wk =   0.0100000
        k(   83) = (   0.1000000   0.1000000   0.3333333), wk =   0.0100000
        k(   84) = (   0.1000000   0.1000000  -0.5000000), wk =   0.0050000
        k(   85) = (   0.1000000   0.1500000   0.0000000), wk =   0.0100000
        k(   86) = (   0.1000000   0.1500000   0.1666667), wk =   0.0200000
        k(   87) = (   0.1000000   0.1500000   0.3333333), wk =   0.0200000
        k(   88) = (   0.1000000   0.1500000  -0.5000000), wk =   0.0100000
        k(   89) = (   0.1000000   0.2000000   0.0000000), wk =   0.0100000
        k(   90) = (   0.1000000   0.2000000   0.1666667), wk =   0.0200000
        k(   91) = (   0.1000000   0.2000000   0.3333333), wk =   0.0200000
        k(   92) = (   0.1000000   0.2000000  -0.5000000), wk =   0.0100000
        k(   93) = (   0.1000000   0.2500000   0.0000000), wk =   0.0100000
        k(   94) = (   0.1000000   0.2500000   0.1666667), wk =   0.0200000
        k(   95) = (   0.1000000   0.2500000   0.3333333), wk =   0.0200000
        k(   96) = (   0.1000000   0.2500000  -0.5000000), wk =   0.0100000
        k(   97) = (   0.1000000   0.3000000   0.0000000), wk =   0.0100000
        k(   98) = (   0.1000000   0.3000000   0.1666667), wk =   0.0200000
        k(   99) = (   0.1000000   0.3000000   0.3333333), wk =   0.0200000
        k(  100) = (   0.1000000   0.3000000  -0.5000000), wk =   0.0100000
        k(  101) = (   0.1000000   0.3500000   0.0000000), wk =   0.0100000
        k(  102) = (   0.1000000   0.3500000   0.1666667), wk =   0.0200000
        k(  103) = (   0.1000000   0.3500000   0.3333333), wk =   0.0200000
        k(  104) = (   0.1000000   0.3500000  -0.5000000), wk =   0.0100000
        k(  105) = (   0.1000000   0.4000000   0.0000000), wk =   0.0100000
        k(  106) = (   0.1000000   0.4000000   0.1666667), wk =   0.0200000
        k(  107) = (   0.1000000   0.4000000   0.3333333), wk =   0.0200000
        k(  108) = (   0.1000000   0.4000000  -0.5000000), wk =   0.0100000
        k(  109) = (   0.1000000   0.4500000   0.0000000), wk =   0.0050000
        k(  110) = (   0.1000000   0.4500000   0.1666667), wk =   0.0100000
        k(  111) = (   0.1000000   0.4500000   0.3333333), wk =   0.0100000
        k(  112) = (   0.1000000   0.4500000  -0.5000000), wk =   0.0050000
        k(  113) = (   0.1500000   0.1500000   0.0000000), wk =   0.0050000
        k(  114) = (   0.1500000   0.1500000   0.1666667), wk =   0.0100000
        k(  115) = (   0.1500000   0.1500000   0.3333333), wk =   0.0100000
        k(  116) = (   0.1500000   0.1500000  -0.5000000), wk =   0.0050000
        k(  117) = (   0.1500000   0.2000000   0.0000000), wk =   0.0100000
        k(  118) = (   0.1500000   0.2000000   0.1666667), wk =   0.0200000
        k(  119) = (   0.1500000   0.2000000   0.3333333), wk =   0.0200000
        k(  120) = (   0.1500000   0.2000000  -0.5000000), wk =   0.0100000
        k(  121) = (   0.1500000   0.2500000   0.0000000), wk =   0.0100000
        k(  122) = (   0.1500000   0.2500000   0.1666667), wk =   0.0200000
        k(  123) = (   0.1500000   0.2500000   0.3333333), wk =   0.0200000
        k(  124) = (   0.1500000   0.2500000  -0.5000000), wk =   0.0100000
        k(  125) = (   0.1500000   0.3000000   0.0000000), wk =   0.0100000
        k(  126) = (   0.1500000   0.3000000   0.1666667), wk =   0.0200000
        k(  127) = (   0.1500000   0.3000000   0.3333333), wk =   0.0200000
        k(  128) = (   0.1500000   0.3000000  -0.5000000), wk =   0.0100000
        k(  129) = (   0.1500000   0.3500000   0.0000000), wk =   0.0100000
        k(  130) = (   0.1500000   0.3500000   0.1666667), wk =   0.0200000
        k(  131) = (   0.1500000   0.3500000   0.3333333), wk =   0.0200000
        k(  132) = (   0.1500000   0.3500000  -0.5000000), wk =   0.0100000
        k(  133) = (   0.1500000   0.4000000   0.0000000), wk =   0.0100000
        k(  134) = (   0.1500000   0.4000000   0.1666667), wk =   0.0200000
        k(  135) = (   0.1500000   0.4000000   0.3333333), wk =   0.0200000
        k(  136) = (   0.1500000   0.4000000  -0.5000000), wk =   0.0100000
        k(  137) = (   0.2000000   0.2000000   0.0000000), wk =   0.0050000
        k(  138) = (   0.2000000   0.2000000   0.1666667), wk =   0.0100000
        k(  139) = (   0.2000000   0.2000000   0.3333333), wk =   0.0100000
        k(  140) = (   0.2000000   0.2000000  -0.5000000), wk =   0.0050000
        k(  141) = (   0.2000000   0.2500000   0.0000000), wk =   0.0100000
        k(  142) = (   0.2000000   0.2500000   0.1666667), wk =   0.0200000
        k(  143) = (   0.2000000   0.2500000   0.3333333), wk =   0.0200000
        k(  144) = (   0.2000000   0.2500000  -0.5000000), wk =   0.0100000
        k(  145) = (   0.2000000   0.3000000   0.0000000), wk =   0.0100000
        k(  146) = (   0.2000000   0.3000000   0.1666667), wk =   0.0200000
        k(  147) = (   0.2000000   0.3000000   0.3333333), wk =   0.0200000
        k(  148) = (   0.2000000   0.3000000  -0.5000000), wk =   0.0100000
        k(  149) = (   0.2000000   0.3500000   0.0000000), wk =   0.0100000
        k(  150) = (   0.2000000   0.3500000   0.1666667), wk =   0.0200000
        k(  151) = (   0.2000000   0.3500000   0.3333333), wk =   0.0200000
        k(  152) = (   0.2000000   0.3500000  -0.5000000), wk =   0.0100000
        k(  153) = (   0.2000000   0.4000000   0.0000000), wk =   0.0050000
        k(  154) = (   0.2000000   0.4000000   0.1666667), wk =   0.0100000
        k(  155) = (   0.2000000   0.4000000   0.3333333), wk =   0.0100000
        k(  156) = (   0.2000000   0.4000000  -0.5000000), wk =   0.0050000
        k(  157) = (   0.2500000   0.2500000   0.0000000), wk =   0.0050000
        k(  158) = (   0.2500000   0.2500000   0.1666667), wk =   0.0100000
        k(  159) = (   0.2500000   0.2500000   0.3333333), wk =   0.0100000
        k(  160) = (   0.2500000   0.2500000  -0.5000000), wk =   0.0050000
        k(  161) = (   0.2500000   0.3000000   0.0000000), wk =   0.0100000
        k(  162) = (   0.2500000   0.3000000   0.1666667), wk =   0.0200000
        k(  163) = (   0.2500000   0.3000000   0.3333333), wk =   0.0200000
        k(  164) = (   0.2500000   0.3000000  -0.5000000), wk =   0.0100000
        k(  165) = (   0.2500000   0.3500000   0.0000000), wk =   0.0100000
        k(  166) = (   0.2500000   0.3500000   0.1666667), wk =   0.0200000
        k(  167) = (   0.2500000   0.3500000   0.3333333), wk =   0.0200000
        k(  168) = (   0.2500000   0.3500000  -0.5000000), wk =   0.0100000
        k(  169) = (   0.3000000   0.3000000   0.0000000), wk =   0.0050000
        k(  170) = (   0.3000000   0.3000000   0.1666667), wk =   0.0100000
        k(  171) = (   0.3000000   0.3000000   0.3333333), wk =   0.0100000
        k(  172) = (   0.3000000   0.3000000  -0.5000000), wk =   0.0050000
        k(  173) = (   0.3000000   0.3500000   0.0000000), wk =   0.0050000
        k(  174) = (   0.3000000   0.3500000   0.1666667), wk =   0.0100000
        k(  175) = (   0.3000000   0.3500000   0.3333333), wk =   0.0100000
        k(  176) = (   0.3000000   0.3500000  -0.5000000), wk =   0.0050000

     Dense  grid:    32075 G-vectors     FFT dimensions: (  30,  30,  90)

     Smooth grid:    11271 G-vectors     FFT dimensions: (  20,  20,  64)

     Dynamical RAM for                 wfc:       0.04 MB

     Dynamical RAM for     wfc (w. buffer):       7.62 MB

     Dynamical RAM for           str. fact:       0.08 MB

     Dynamical RAM for           local pot:       0.00 MB

     Dynamical RAM for          nlocal pot:       0.11 MB

     Dynamical RAM for                qrad:       0.44 MB

     Dynamical RAM for          rho,v,vnew:       0.55 MB

     Dynamical RAM for               rhoin:       0.18 MB

     Dynamical RAM for            rho*nmix:       1.31 MB

     Dynamical RAM for           G-vectors:       0.32 MB

     Dynamical RAM for          h,s,v(r/c):       0.03 MB

     Dynamical RAM for          <psi|beta>:       0.01 MB

     Dynamical RAM for                 psi:       0.09 MB

     Dynamical RAM for                hpsi:       0.09 MB

     Dynamical RAM for                spsi:       0.09 MB

     Dynamical RAM for      wfcinit/wfcrot:       0.09 MB

     Dynamical RAM for           addusdens:       3.84 MB

     Dynamical RAM for          addusforce:       4.37 MB

     Dynamical RAM for         addusstress:       4.08 MB

     Estimated static dynamical RAM per process >       9.98 MB

     Estimated max dynamical RAM per process >      15.66 MB

     Estimated total dynamical RAM >      93.96 MB

     Check: negative core charge=   -0.000011

     Initial potential from superposition of free atoms

     starting charge      15.9998, renormalised to      16.0000
     Starting wfcs are   16 randomized atomic wfcs
     Checking if some PAW data can be deallocated... 

     total cpu time spent up to now is        0.4 secs

     Self-consistent Calculation

     iteration #  1     ecut=    45.00 Ry     beta= 0.40
     Davidson diagonalization with overlap

---- Real-time Memory Report at c_bands before calling an iterative solver
             0 MiB given to the printing process from OS
             0 MiB allocation reported by mallinfo(arena+hblkhd)
             0 MiB available memory on the node where the printing process lives
------------------
     ethr =  1.00E-02,  avg # of iterations =  2.8
     Minimization algorithm failed to find Fermi energy: reverting to bisection
     Possible cause: smearing is larger than the electronic band-gap.

     total cpu time spent up to now is        1.2 secs

     total energy              =     -73.79008328 Ry
     estimated scf accuracy    <       0.37329028 Ry

     iteration #  2     ecut=    45.00 Ry     beta= 0.40
     Davidson diagonalization with overlap

---- Real-time Memory Report at c_bands before calling an iterative solver
             0 MiB given to the printing process from OS
             0 MiB allocation reported by mallinfo(arena+hblkhd)
             0 MiB available memory on the node where the printing process lives
------------------
     ethr =  2.33E-03,  avg # of iterations =  1.4

     total cpu time spent up to now is        1.8 secs

     WARNING: integrated charge=    16.00254087, expected=    16.00000000

     total energy              =     -73.75861141 Ry
     estimated scf accuracy    <       0.08026014 Ry

     iteration #  3     ecut=    45.00 Ry     beta= 0.40
     Davidson diagonalization with overlap

---- Real-time Memory Report at c_bands before calling an iterative solver
             0 MiB given to the printing process from OS
             0 MiB allocation reported by mallinfo(arena+hblkhd)
             0 MiB available memory on the node where the printing process lives
------------------
     ethr =  5.02E-04,  avg # of iterations =  4.4

     total cpu time spent up to now is        2.7 secs

     WARNING: integrated charge=    16.00313699, expected=    16.00000000

     total energy              =     -73.77291860 Ry
     estimated scf accuracy    <       0.00218790 Ry

     iteration #  4     ecut=    45.00 Ry     beta= 0.40
     Davidson diagonalization with overlap

---- Real-time Memory Report at c_bands before calling an iterative solver
             0 MiB given to the printing process from OS
             0 MiB allocation reported by mallinfo(arena+hblkhd)
             0 MiB available memory on the node where the printing process lives
------------------
     c_bands:  1 eigenvalues not converged
     ethr =  1.37E-05,  avg # of iterations =  5.4

     total cpu time spent up to now is        3.6 secs

     WARNING: integrated charge=    16.00334809, expected=    16.00000000

     total energy              =     -73.77244930 Ry
     estimated scf accuracy    <       0.00246072 Ry

     iteration #  5     ecut=    45.00 Ry     beta= 0.40
     Davidson diagonalization with overlap

---- Real-time Memory Report at c_bands before calling an iterative solver
             0 MiB given to the printing process from OS
             0 MiB allocation reported by mallinfo(arena+hblkhd)
             0 MiB available memory on the node where the printing process lives
------------------
     ethr =  1.37E-05,  avg # of iterations =  2.9

     total cpu time spent up to now is        4.3 secs

     WARNING: integrated charge=    16.00335402, expected=    16.00000000

     total energy              =     -73.77286532 Ry
     estimated scf accuracy    <       0.00000246 Ry

     iteration #  6     ecut=    45.00 Ry     beta= 0.40
     Davidson diagonalization with overlap

---- Real-time Memory Report at c_bands before calling an iterative solver
             0 MiB given to the printing process from OS
             0 MiB allocation reported by mallinfo(arena+hblkhd)
             0 MiB available memory on the node where the printing process lives
------------------
     ethr =  1.54E-08,  avg # of iterations =  4.0

     total cpu time spent up to now is        5.2 secs

     WARNING: integrated charge=    16.00336117, expected=    16.00000000

     total energy              =     -73.77286733 Ry
     estimated scf accuracy    <       0.00000023 Ry

     iteration #  7     ecut=    45.00 Ry     beta= 0.40
     Davidson diagonalization with overlap

---- Real-time Memory Report at c_bands before calling an iterative solver
             0 MiB given to the printing process from OS
             0 MiB allocation reported by mallinfo(arena+hblkhd)
             0 MiB available memory on the node where the printing process lives
------------------
     ethr =  1.42E-09,  avg # of iterations =  2.0

     total cpu time spent up to now is        5.8 secs

     WARNING: integrated charge=    16.00336099, expected=    16.00000000

     total energy              =     -73.77286737 Ry
     estimated scf accuracy    <       0.00000002 Ry

     iteration #  8     ecut=    45.00 Ry     beta= 0.40
     Davidson diagonalization with overlap

---- Real-time Memory Report at c_bands before calling an iterative solver
             0 MiB given to the printing process from OS
             0 MiB allocation reported by mallinfo(arena+hblkhd)
             0 MiB available memory on the node where the printing process lives
------------------
     c_bands:  1 eigenvalues not converged
     ethr =  1.01E-10,  avg # of iterations =  2.0

     total cpu time spent up to now is        6.4 secs

     WARNING: integrated charge=    16.00336037, expected=    16.00000000

     total energy              =     -73.77286737 Ry
     estimated scf accuracy    <          4.0E-09 Ry

     iteration #  9     ecut=    45.00 Ry     beta= 0.40
     Davidson diagonalization with overlap

---- Real-time Memory Report at c_bands before calling an iterative solver
             0 MiB given to the printing process from OS
             0 MiB allocation reported by mallinfo(arena+hblkhd)
             0 MiB available memory on the node where the printing process lives
------------------
     ethr =  2.50E-11,  avg # of iterations =  2.0

     total cpu time spent up to now is        7.0 secs

     End of self-consistent calculation

          k = 0.0000 0.0000 0.0000 (  1375 PWs)   bands (ev):

   -14.1128 -14.0288  -2.5786  -1.7276   2.3909   2.3909   2.3943   2.3943
     8.8195  13.7586  13.7592  13.7711

     occupation numbers 
     1.0000   1.0000   1.0000   1.0000   1.0000   1.0000   1.0000   1.0000
     0.0000   0.0000   0.0000   0.0000

          k = 0.0000 0.0000 0.0527 (  1387 PWs)   bands (ev):

   -14.1073 -14.0346  -2.5277  -1.7920   2.3911   2.3911   2.3940   2.3940
     9.0227  12.5525  13.7594  13.7597

     occupation numbers 
     1.0000   1.0000   1.0000   1.0000   1.0000   1.0000   1.0000   1.0000
     0.0000   0.0000   0.0000   0.0000

          k = 0.0000 0.0000 0.1054 (  1376 PWs)   bands (ev):

   -14.0921 -14.0501  -2.3847  -1.9615   2.3917   2.3917   2.3934   2.3934
     9.6029  11.5393  13.7618  13.7638

     occupation numbers 
     1.0000   1.0000   1.0000   1.0000   1.0000   1.0000   1.0000   1.0000
     0.0000   0.0000   0.0000   0.0000

          k = 0.0000 0.0000-0.1581 (  1364 PWs)   bands (ev):

   -14.0711 -14.0711  -2.1796  -2.1796   2.3926   2.3926   2.3926   2.3926
    10.4823  10.4824  13.7649  13.7649

     occupation numbers 
     1.0000   1.0000   1.0000   1.0000   1.0000   1.0000   1.0000   1.0000
     0.0000   0.0000   0.0000   0.0000

          k = 0.0500 0.0289 0.0000 (  1383 PWs)   bands (ev):

   -14.0536 -13.9700  -2.5070  -1.6584   2.1481   2.1529   2.2631   2.2675
     8.8951  13.1011  13.7865  13.8060

     occupation numbers 
     1.0000   1.0000   1.0000   1.0000   1.0000   1.0000   1.0000   1.0000
     0.0000   0.0000   0.0000   0.0000

          k = 0.0500 0.0289 0.0527 (  1384 PWs)   bands (ev):

   -14.0481 -13.9757  -2.4562  -1.7226   2.1484   2.1526   2.2634   2.2672
     9.0978  12.6197  13.7902  13.8052

     occupation numbers 
     1.0000   1.0000   1.0000   1.0000   1.0000   1.0000   1.0000   1.0000
     0.0000   0.0000   0.0000   0.0000

          k = 0.0500 0.0289 0.1054 (  1379 PWs)   bands (ev):

   -14.0330 -13.9912  -2.3135  -1.8915   2.1493   2.1517   2.2642   2.2664
     9.6768  11.6089  13.7946  13.8025

     occupation numbers 
     1.0000   1.0000   1.0000   1.0000   1.0000   1.0000   1.0000   1.0000
     0.0000   0.0000   0.0000   0.0000

          k = 0.0500 0.0289-0.1581 (  1366 PWs)   bands (ev):

   -14.0121 -14.0121  -2.1090  -2.1090   2.1505   2.1505   2.2653   2.2653
    10.5543  10.5544  13.7987  13.7997

     occupation numbers 
     1.0000   1.0000   1.0000   1.0000   1.0000   1.0000   1.0000   1.0000
     0.0000   0.0000   0.0000   0.0000

          k = 0.1000 0.0577 0.0000 (  1403 PWs)   bands (ev):

   -13.8763 -13.7937  -2.2927  -1.4514   1.4712   1.4793   1.9168   1.9229
     9.1220  13.3009  13.8186  13.8565

     occupation numbers 
     1.0000   1.0000   1.0000   1.0000   1.0000   1.0000   1.0000   1.0000
     0.0000   0.0000   0.0000   0.0000

          k = 0.1000 0.0577 0.0527 (  1398 PWs)   bands (ev):

   -13.8709 -13.7993  -2.2423  -1.5150   1.4717   1.4788   1.9172   1.9225
     9.3234  12.8201  13.8298  13.8554

     occupation numbers 
     1.0000   1.0000   1.0000   1.0000   1.0000   1.0000   1.0000   1.0000
     0.0000   0.0000   0.0000   0.0000

          k = 0.1000 0.0577 0.1054 (  1394 PWs)   bands (ev):

   -13.8560 -13.8147  -2.1008  -1.6824   1.4732   1.4773   1.9183   1.9214
     9.8987  11.8172  13.8385  13.8512

     occupation numbers 
     1.0000   1.0000   1.0000   1.0000   1.0000   1.0000   1.0000   1.0000
     0.0000   0.0000   0.0000   0.0000

          k = 0.1000 0.0577-0.1581 (  1382 PWs)   bands (ev):

   -13.8354 -13.8354  -1.8980  -1.8980   1.4753   1.4753   1.9199   1.9199
    10.7704  10.7704  13.8453  13.8454

     occupation numbers 
     1.0000   1.0000   1.0000   1.0000   1.0000   1.0000   1.0000   1.0000
     0.0000   0.0000   0.0000   0.0000

          k = 0.1500 0.0866 0.0000 (  1409 PWs)   bands (ev):

   -13.5815 -13.5007  -1.9377  -1.1089   0.4774   0.4899   1.4347   1.4424
     9.5005  13.6230  13.7734  13.8348

     occupation numbers 
     1.0000   1.0000   1.0000   1.0000   1.0000   1.0000   1.0000   1.0000
     0.0000   0.0000   0.0000   0.0000

          k = 0.1500 0.0866 0.0527 (  1402 PWs)   bands (ev):

   -13.5762 -13.5062  -1.8879  -1.1715   0.4782   0.4890   1.4352   1.4419
     9.6996  13.1426  13.7971  13.8339

     occupation numbers 
     1.0000   1.0000   1.0000   1.0000   1.0000   1.0000   1.0000   1.0000
     0.0000   0.0000   0.0000   0.0000

          k = 0.1500 0.0866 0.1054 (  1404 PWs)   bands (ev):

   -13.5616 -13.5212  -1.7484  -1.3362   0.4805   0.4868   1.4366   1.4405
    10.2682  12.1601  13.8077  13.8271

     occupation numbers 
     1.0000   1.0000   1.0000   1.0000   1.0000   1.0000   1.0000   1.0000
     0.0000   0.0000   0.0000   0.0000

          k = 0.1500 0.0866-0.1581 (  1392 PWs)   bands (ev):

   -13.5415 -13.5415  -1.5485  -1.5485   0.4836   0.4836   1.4386   1.4386
    11.1289  11.1289  13.8176  13.8176

     occupation numbers 
     1.0000   1.0000   1.0000   1.0000   1.0000   1.0000   1.0000   1.0000
     0.0000   0.0000   0.0000   0.0000

          k = 0.2000 0.1155 0.0000 (  1395 PWs)   bands (ev):

   -13.1706 -13.0922  -1.4454  -0.7129  -0.6953  -0.6353   0.9009   0.9097
    10.0299  13.6341  13.7175  13.8178

     occupation numbers 
     1.0000   1.0000   1.0000   1.0000   1.0000   1.0000   1.0000   1.0000
     0.0000   0.0000   0.0000   0.0000

          k = 0.2000 0.1155 0.0527 (  1401 PWs)   bands (ev):

   -13.1654 -13.0975  -1.3967  -0.7120  -0.6965  -0.6960   0.9014   0.9091
    10.2252  13.4725  13.6876  13.7274

     occupation numbers 
     1.0000   1.0000   1.0000   1.0000   1.0000   1.0000   1.0000   1.0000
     0.0000   0.0000   0.0000   0.0000

          k = 0.2000 0.1155 0.1054 (  1407 PWs)   bands (ev):

   -13.1513 -13.1121  -1.2600  -0.8570  -0.7084  -0.6997   0.9031   0.9074
    10.7820  12.6145  13.6776  13.7070

     occupation numbers 
     1.0000   1.0000   1.0000   1.0000   1.0000   1.0000   1.0000   1.0000
     0.0000   0.0000   0.0000   0.0000

          k = 0.2000 0.1155-0.1581 (  1404 PWs)   bands (ev):

   -13.1318 -13.1318  -1.0645  -1.0645  -0.7041  -0.7041   0.9052   0.9052
    11.6221  11.6221  13.6897  13.6899

     occupation numbers 
     1.0000   1.0000   1.0000   1.0000   1.0000   1.0000   1.0000   1.0000
     0.0000   0.0000   0.0000   0.0000

          k = 0.2500 0.1443 0.0000 (  1407 PWs)   bands (ev):

   -12.6454 -12.5700  -2.0050  -1.9819  -0.8221  -0.0381   0.3790   0.3888
    10.7084  12.5527  12.7665  13.4372

     occupation numbers 
     1.0000   1.0000   1.0000   1.0000   1.0000   1.0000   1.0000   1.0000
     0.0000   0.0000   0.0000   0.0000

          k = 0.2500 0.1443 0.0527 (  1405 PWs)   bands (ev):

   -12.6404 -12.5751  -2.0035  -1.9834  -0.7747  -0.0968   0.3797   0.3881
    10.8955  12.5695  12.7422  13.4320

     occupation numbers 
     1.0000   1.0000   1.0000   1.0000   1.0000   1.0000   1.0000   1.0000
     0.0000   0.0000   0.0000   0.0000

          k = 0.2500 0.1443 0.1054 (  1407 PWs)   bands (ev):

   -12.6268 -12.5891  -1.9993  -1.9877  -0.6421  -0.2519   0.3815   0.3863
    11.4232  12.5832  12.6851  13.2682

     occupation numbers 
     1.0000   1.0000   1.0000   1.0000   1.0000   1.0000   1.0000   1.0000
     0.0000   0.0000   0.0000   0.0000

          k = 0.2500 0.1443-0.1581 (  1410 PWs)   bands (ev):

   -12.6080 -12.6080  -1.9935  -1.9935  -0.4526  -0.4526   0.3839   0.3839
    12.1631  12.1632  12.7864  12.7864

     occupation numbers 
     1.0000   1.0000   1.0000   1.0000   1.0000   1.0000   1.0000   1.0000
     0.0000   0.0000   0.0000   0.0000

          k = 0.3000 0.1732 0.0000 (  1421 PWs)   bands (ev):

   -12.0087 -11.9372  -3.3319  -3.3030  -0.0878  -0.0785  -0.0774   0.6691
    11.1338  11.4325  11.5315  13.2279

     occupation numbers 
     1.0000   1.0000   1.0000   1.0000   1.0000   1.0000   1.0000   1.0000
     0.0000   0.0000   0.0000   0.0000

          k = 0.3000 0.1732 0.0527 (  1403 PWs)   bands (ev):

   -12.0040 -11.9420  -3.3299  -3.3049  -0.0870  -0.0781  -0.0331   0.6135
    11.1347  11.4002  11.7439  13.2297

     occupation numbers 
     1.0000   1.0000   1.0000   1.0000   1.0000   1.0000   1.0000   1.0000
     0.0000   0.0000   0.0000   0.0000

          k = 0.3000 0.1732 0.1054 (  1404 PWs)   bands (ev):

   -11.9911 -11.9553  -3.3246  -3.3102  -0.0852  -0.0800   0.0939   0.4661
    11.1730  11.3329  12.2865  13.2214

     occupation numbers 
     1.0000   1.0000   1.0000   1.0000   1.0000   1.0000   1.0000   1.0000
     0.0000   0.0000   0.0000   0.0000

          k = 0.3000 0.1732-0.1581 (  1414 PWs)   bands (ev):

   -11.9733 -11.9733  -3.3175  -3.3175  -0.0826  -0.0826   0.2750   0.2750
    11.2482  11.2482  12.9957  12.9957

     occupation numbers 
     1.0000   1.0000   1.0000   1.0000   1.0000   1.0000   1.0000   1.0000
     0.0000   0.0000   0.0000   0.0000

          k = 0.3500 0.2021 0.0000 (  1414 PWs)   bands (ev):

   -11.2654 -11.1982  -4.6460  -4.6115  -0.4719  -0.4612   0.7650   1.4597
     9.7169  10.0879  12.4737  13.0429

     occupation numbers 
     1.0000   1.0000   1.0000   1.0000   1.0000   1.0000   1.0000   1.0000
     0.0000   0.0000   0.0000   0.0000

          k = 0.3500 0.2021 0.0527 (  1416 PWs)   bands (ev):

   -11.2610 -11.2028  -4.6437  -4.6138  -0.4712  -0.4619   0.8076   1.4085
     9.7356  10.0577  12.6406  13.0489

     occupation numbers 
     1.0000   1.0000   1.0000   1.0000   1.0000   1.0000   1.0000   1.0000
     0.0000   0.0000   0.0000   0.0000

          k = 0.3500 0.2021 0.1054 (  1410 PWs)   bands (ev):

   -11.2489 -11.2153  -4.6374  -4.6202  -0.4693  -0.4639   0.9264   1.2725
     9.7924   9.9792  12.9672  13.0617

     occupation numbers 
     1.0000   1.0000   1.0000   1.0000   1.0000   1.0000   1.0000   1.0000
     0.0000   0.0000   0.0000   0.0000

          k = 0.3500 0.2021-0.1581 (  1410 PWs)   bands (ev):

   -11.2321 -11.2321  -4.6288  -4.6288  -0.4666  -0.4666   1.0952   1.0952
     9.8805   9.8805  13.0543  13.0543

     occupation numbers 
     1.0000   1.0000   1.0000   1.0000   1.0000   1.0000   1.0000   1.0000
     0.0000   0.0000   0.0000   0.0000

          k = 0.4000 0.2309 0.0000 (  1410 PWs)   bands (ev):

   -10.4247 -10.3627  -5.9105  -5.8708  -0.7564  -0.7453   1.6640   2.2732
     8.4064   8.8225  12.8735  12.9714

     occupation numbers 
     1.0000   1.0000   1.0000   1.0000   1.0000   1.0000   1.0000   1.0000
     0.0000   0.0000   0.0000   0.0000

          k = 0.4000 0.2309 0.0527 (  1418 PWs)   bands (ev):

   -10.4207 -10.3670  -5.9079  -5.8735  -0.7557  -0.7461   1.7021   2.2293
     8.4281   8.7886  12.8827  12.9685

     occupation numbers 
     1.0000   1.0000   1.0000   1.0000   1.0000   1.0000   1.0000   1.0000
     0.0000   0.0000   0.0000   0.0000

          k = 0.4000 0.2309 0.1054 (  1412 PWs)   bands (ev):

   -10.4095 -10.3784  -5.9006  -5.8808  -0.7536  -0.7481   1.8079   2.1118
     8.4922   8.7007  12.9048  12.9552

     occupation numbers 
     1.0000   1.0000   1.0000   1.0000   1.0000   1.0000   1.0000   1.0000
     0.0000   0.0000   0.0000   0.0000

          k = 0.4000 0.2309-0.1581 (  1402 PWs)   bands (ev):

   -10.3940 -10.3940  -5.8907  -5.8907  -0.7508  -0.7508   1.9570   1.9570
     8.5906   8.5906  12.9314  12.9314

     occupation numbers 
     1.0000   1.0000   1.0000   1.0000   1.0000   1.0000   1.0000   1.0000
     0.0000   0.0000   0.0000   0.0000

          k = 0.4500 0.2598 0.0000 (  1426 PWs)   bands (ev):

    -9.5172  -9.4626  -7.0762  -7.0337  -0.9307  -0.9195   2.5029   2.9541
     7.3839   7.7845  12.7879  12.9031

     occupation numbers 
     1.0000   1.0000   1.0000   1.0000   1.0000   1.0000   1.0000   1.0000
     0.0000   0.0000   0.0000   0.0000

          k = 0.4500 0.2598 0.0527 (  1416 PWs)   bands (ev):

    -9.5136  -9.4663  -7.0734  -7.0366  -0.9300  -0.9203   2.5327   2.9237
     7.4022   7.7494  12.7957  12.8954

     occupation numbers 
     1.0000   1.0000   1.0000   1.0000   1.0000   1.0000   1.0000   1.0000
     0.0000   0.0000   0.0000   0.0000

          k = 0.4500 0.2598 0.1054 (  1417 PWs)   bands (ev):

    -9.5037  -9.4763  -7.0657  -7.0444  -0.9279  -0.9223   2.6145   2.8405
     7.4588   7.6596  12.8168  12.8743

     occupation numbers 
     1.0000   1.0000   1.0000   1.0000   1.0000   1.0000   1.0000   1.0000
     0.0000   0.0000   0.0000   0.0000

          k = 0.4500 0.2598-0.1581 (  1404 PWs)   bands (ev):

    -9.4900  -9.4900  -7.0551  -7.0551  -0.9251  -0.9251   2.7272   2.7272
     7.5510   7.5510  12.8456  12.8456

     occupation numbers 
     1.0000   1.0000   1.0000   1.0000   1.0000   1.0000   1.0000   1.0000
     0.0000   0.0000   0.0000   0.0000

          k =-0.5000-0.2887 0.0000 (  1424 PWs)   bands (ev):

    -8.8530  -8.8240  -7.8054  -7.7827  -0.9894  -0.9781   2.9331   3.2082
     6.9785   7.3217  12.7569  12.8755

     occupation numbers 
     1.0000   1.0000   1.0000   1.0000   1.0000   1.0000   1.0000   1.0000
     0.0000   0.0000   0.0000   0.0000

          k =-0.5000-0.2887 0.0527 (  1420 PWs)   bands (ev):

    -8.8510  -8.8259  -7.8041  -7.7844  -0.9886  -0.9789   2.9534   3.1922
     6.9906   7.2880  12.7648  12.8674

     occupation numbers 
     1.0000   1.0000   1.0000   1.0000   1.0000   1.0000   1.0000   1.0000
     0.0000   0.0000   0.0000   0.0000

          k =-0.5000-0.2887 0.1054 (  1414 PWs)   bands (ev):

    -8.8455  -8.8310  -7.8003  -7.7889  -0.9866  -0.9810   3.0079   3.1463
     7.0319   7.2039  12.7862  12.8455

     occupation numbers 
     1.0000   1.0000   1.0000   1.0000   1.0000   1.0000   1.0000   1.0000
     0.0000   0.0000   0.0000   0.0000

          k =-0.5000-0.2887-0.1581 (  1420 PWs)   bands (ev):

    -8.8382  -8.8382  -7.7947  -7.7947  -0.9838  -0.9838   3.0792   3.0792
     7.1072   7.1072  12.8156  12.8156

     occupation numbers 
     1.0000   1.0000   1.0000   1.0000   1.0000   1.0000   1.0000   1.0000
     0.0000   0.0000   0.0000   0.0000

          k = 0.1000 0.0000 0.0000 (  1397 PWs)   bands (ev):

   -13.9354 -13.8524  -2.3641  -1.5203   1.7075   1.7124   2.0087   2.0125
     9.0464  13.2348  13.8677  13.8990

     occupation numbers 
     1.0000   1.0000   1.0000   1.0000   1.0000   1.0000   1.0000   1.0000
     0.0000   0.0000   0.0000   0.0000

          k = 0.1000 0.0000 0.0527 (  1390 PWs)   bands (ev):

   -13.9299 -13.8581  -2.3135  -1.5841   1.7079   1.7121   2.0089   2.0123
     9.2482  12.7539  13.8765  13.8978

     occupation numbers 
     1.0000   1.0000   1.0000   1.0000   1.0000   1.0000   1.0000   1.0000
     0.0000   0.0000   0.0000   0.0000

          k = 0.1000 0.0000 0.1054 (  1383 PWs)   bands (ev):

   -13.9149 -13.8734  -2.1716  -1.7520   1.7088   1.7113   2.0096   2.0115
     9.8248  11.7481  13.8839  13.8945

     occupation numbers 
     1.0000   1.0000   1.0000   1.0000   1.0000   1.0000   1.0000   1.0000
     0.0000   0.0000   0.0000   0.0000

          k = 0.1000 0.0000-0.1581 (  1392 PWs)   bands (ev):

   -13.8943 -13.8943  -1.9682  -1.9682   1.7100   1.7100   2.0105   2.0105
    10.6985  10.6985  13.8895  13.8901

     occupation numbers 
     1.0000   1.0000   1.0000   1.0000   1.0000   1.0000   1.0000   1.0000
     0.0000   0.0000   0.0000   0.0000

          k = 0.1500 0.0289 0.0000 (  1396 PWs)   bands (ev):

   -13.6993 -13.6178  -2.0794  -1.2455   0.9103   0.9187   1.5557   1.5616
     9.3494  13.4981  13.9566  14.0078

     occupation numbers 
     1.0000   1.0000   1.0000   1.0000   1.0000   1.0000   1.0000   1.0000
     0.0000   0.0000   0.0000   0.0000

          k = 0.1500 0.0289 0.0527 (  1402 PWs)   bands (ev):

   -13.6940 -13.6234  -2.0293  -1.3084   0.9109   0.9181   1.5561   1.5612
     9.5494  13.0189  13.9734  14.0062

     occupation numbers 
     1.0000   1.0000   1.0000   1.0000   1.0000   1.0000   1.0000   1.0000
     0.0000   0.0000   0.0000   0.0000

          k = 0.1500 0.0289 0.1054 (  1398 PWs)   bands (ev):

   -13.6793 -13.6385  -1.8890  -1.4742   0.9124   0.9166   1.5572   1.5601
    10.1209  12.0251  13.9852  14.0011

     occupation numbers 
     1.0000   1.0000   1.0000   1.0000   1.0000   1.0000   1.0000   1.0000
     0.0000   0.0000   0.0000   0.0000

          k = 0.1500 0.0289-0.1581 (  1400 PWs)   bands (ev):

   -13.6590 -13.6590  -1.6879  -1.6879   0.9145   0.9145   1.5586   1.5586
    10.9864  10.9865  13.9936  13.9937

     occupation numbers 
     1.0000   1.0000   1.0000   1.0000   1.0000   1.0000   1.0000   1.0000
     0.0000   0.0000   0.0000   0.0000

          k = 0.2000 0.0577 0.0000 (  1404 PWs)   bands (ev):

   -13.3465 -13.2670  -1.6556  -0.8373  -0.1487  -0.1350   1.0130   1.0212
     9.8038  13.8602  13.9256  13.9994

     occupation numbers 
     1.0000   1.0000   1.0000   1.0000   1.0000   1.0000   1.0000   1.0000
     0.0000   0.0000   0.0000   0.0000

          k = 0.2000 0.0577 0.0527 (  1407 PWs)   bands (ev):

   -13.3413 -13.2724  -1.6064  -0.8989  -0.1478  -0.1360   1.0135   1.0206
    10.0009  13.3928  13.9550  13.9985

     occupation numbers 
     1.0000   1.0000   1.0000   1.0000   1.0000   1.0000   1.0000   1.0000
     0.0000   0.0000   0.0000   0.0000

          k = 0.2000 0.0577 0.1054 (  1403 PWs)   bands (ev):

   -13.3269 -13.2872  -1.4685  -1.0614  -0.1453  -0.1384   1.0150   1.0191
    10.5637  12.4321  13.9652  13.9889

     occupation numbers 
     1.0000   1.0000   1.0000   1.0000   1.0000   1.0000   1.0000   1.0000
     0.0000   0.0000   0.0000   0.0000

          k = 0.2000 0.0577-0.1581 (  1404 PWs)   bands (ev):

   -13.3071 -13.3071  -1.2710  -1.2710  -0.1419  -0.1419   1.0171   1.0171
    11.4149  11.4149  13.9765  13.9766

     occupation numbers 
     1.0000   1.0000   1.0000   1.0000   1.0000   1.0000   1.0000   1.0000
     0.0000   0.0000   0.0000   0.0000

          k = 0.2500 0.0866 0.0000 (  1412 PWs)   bands (ev):

   -12.8784 -12.8017  -1.3673  -1.3477  -1.0974  -0.3013   0.4612   0.4710
    10.4085  13.1610  13.3227  13.7837

     occupation numbers 
     1.0000   1.0000   1.0000   1.0000   1.0000   1.0000   1.0000   1.0000
     0.0000   0.0000   0.0000   0.0000

          k = 0.2500 0.0866 0.0527 (  1403 PWs)   bands (ev):

   -12.8733 -12.8069  -1.3660  -1.3491  -1.0493  -0.3610   0.4618   0.4704
    10.6005  13.1685  13.2877  13.7486

     occupation numbers 
     1.0000   1.0000   1.0000   1.0000   1.0000   1.0000   1.0000   1.0000
     0.0000   0.0000   0.0000   0.0000

          k = 0.2500 0.0866 0.1054 (  1406 PWs)   bands (ev):

   -12.8595 -12.8212  -1.3624  -1.3527  -0.9149  -0.5187   0.4636   0.4686
    11.1472  12.8757  13.2321  13.4028

     occupation numbers 
     1.0000   1.0000   1.0000   1.0000   1.0000   1.0000   1.0000   1.0000
     0.0000   0.0000   0.0000   0.0000

          k = 0.2500 0.0866-0.1581 (  1396 PWs)   bands (ev):

   -12.8404 -12.8404  -1.3575  -1.3575  -0.7225  -0.7225   0.4661   0.4661
    11.9658  11.9658  13.2869  13.2870

     occupation numbers 
     1.0000   1.0000   1.0000   1.0000   1.0000   1.0000   1.0000   1.0000
     0.0000   0.0000   0.0000   0.0000

          k = 0.3000 0.1155 0.0000 (  1407 PWs)   bands (ev):

   -12.2974 -12.2241  -2.6625  -2.6371  -0.4128  -0.0481  -0.0371   0.3525
    11.1609  11.7970  12.0442  13.5888

     occupation numbers 
     1.0000   1.0000   1.0000   1.0000   1.0000   1.0000   1.0000   1.0000
     0.0000   0.0000   0.0000   0.0000

          k = 0.3000 0.1155 0.0527 (  1409 PWs)   bands (ev):

   -12.2926 -12.2291  -2.6608  -2.6388  -0.3664  -0.0473  -0.0378   0.2953
    11.3311  11.8295  12.0252  13.5853

     occupation numbers 
     1.0000   1.0000   1.0000   1.0000   1.0000   1.0000   1.0000   1.0000
     0.0000   0.0000   0.0000   0.0000

          k = 0.3000 0.1155 0.1054 (  1410 PWs)   bands (ev):

   -12.2794 -12.2427  -2.6562  -2.6434  -0.2367  -0.0453  -0.0398   0.1442
    11.7004  11.9329  12.0755  13.4915

     occupation numbers 
     1.0000   1.0000   1.0000   1.0000   1.0000   1.0000   1.0000   1.0000
     0.0000   0.0000   0.0000   0.0000

          k = 0.3000 0.1155-0.1581 (  1410 PWs)   bands (ev):

   -12.2611 -12.2611  -2.6498  -2.6498  -0.0516  -0.0516  -0.0425  -0.0425
    11.8621  11.8621  12.7581  12.7582

     occupation numbers 
     1.0000   1.0000   1.0000   1.0000   1.0000   1.0000   1.0000   1.0000
     0.0000   0.0000   0.0000   0.0000

          k = 0.3500 0.1443 0.0000 (  1413 PWs)   bands (ev):

   -11.6073 -11.5381  -3.9745  -3.9432  -0.4824  -0.4707   0.3836   1.1054
    10.3869  10.7121  12.0541  13.3917

     occupation numbers 
     1.0000   1.0000   1.0000   1.0000   1.0000   1.0000   1.0000   1.0000
     0.0000   0.0000   0.0000   0.0000

          k = 0.3500 0.1443 0.0527 (  1411 PWs)   bands (ev):

   -11.6028 -11.5428  -3.9724  -3.9453  -0.4817  -0.4715   0.4276   1.0519
    10.4018  10.6851  12.2422  13.3953

     occupation numbers 
     1.0000   1.0000   1.0000   1.0000   1.0000   1.0000   1.0000   1.0000
     0.0000   0.0000   0.0000   0.0000

          k = 0.3500 0.1443 0.1054 (  1410 PWs)   bands (ev):

   -11.5903 -11.5556  -3.9667  -3.9511  -0.4795  -0.4737   0.5506   0.9101
    10.4501  10.6155  12.7567  13.3974

     occupation numbers 
     1.0000   1.0000   1.0000   1.0000   1.0000   1.0000   1.0000   1.0000
     0.0000   0.0000   0.0000   0.0000

          k = 0.3500 0.1443-0.1581 (  1414 PWs)   bands (ev):

   -11.5730 -11.5730  -3.9589  -3.9589  -0.4766  -0.4766   0.7257   0.7257
    10.5280  10.5280  13.3134  13.3137

     occupation numbers 
     1.0000   1.0000   1.0000   1.0000   1.0000   1.0000   1.0000   1.0000
     0.0000   0.0000   0.0000   0.0000

          k = 0.4000 0.1732 0.0000 (  1417 PWs)   bands (ev):

   -10.8145 -10.7500  -5.2596  -5.2227  -0.8218  -0.8096   1.2626   1.9187
     9.0216   9.4084  13.0146  13.2361

     occupation numbers 
     1.0000   1.0000   1.0000   1.0000   1.0000   1.0000   1.0000   1.0000
     0.0000   0.0000   0.0000   0.0000

          k = 0.4000 0.1732 0.0527 (  1414 PWs)   bands (ev):

   -10.8102 -10.7544  -5.2572  -5.2252  -0.8210  -0.8104   1.3032   1.8708
     9.0421   9.3776  13.1190  13.2470

     occupation numbers 
     1.0000   1.0000   1.0000   1.0000   1.0000   1.0000   1.0000   1.0000
     0.0000   0.0000   0.0000   0.0000

          k = 0.4000 0.1732 0.1054 (  1415 PWs)   bands (ev):

   -10.7986 -10.7663  -5.2504  -5.2320  -0.8188  -0.8127   1.4161   1.7431
     9.1028   9.2970  13.2202  13.2653

     occupation numbers 
     1.0000   1.0000   1.0000   1.0000   1.0000   1.0000   1.0000   1.0000
     0.0000   0.0000   0.0000   0.0000

          k = 0.4000 0.1732-0.1581 (  1412 PWs)   bands (ev):

   -10.7825 -10.7825  -5.2413  -5.2413  -0.8157  -0.8157   1.5760   1.5760
     9.1950   9.1950  13.2536  13.2536

     occupation numbers 
     1.0000   1.0000   1.0000   1.0000   1.0000   1.0000   1.0000   1.0000
     0.0000   0.0000   0.0000   0.0000

          k = 0.4500 0.2021 0.0000 (  1422 PWs)   bands (ev):

    -9.9344  -9.8757  -6.4783  -6.4368  -1.0539  -1.0414   2.1551   2.6971
     7.8312   8.2388  13.0886  13.2019

     occupation numbers 
     1.0000   1.0000   1.0000   1.0000   1.0000   1.0000   1.0000   1.0000
     0.0000   0.0000   0.0000   0.0000

          k = 0.4500 0.2021 0.0527 (  1423 PWs)   bands (ev):

    -9.9305  -9.8797  -6.4756  -6.4396  -1.0531  -1.0422   2.1896   2.6589
     7.8517   8.2050  13.0969  13.1952

     occupation numbers 
     1.0000   1.0000   1.0000   1.0000   1.0000   1.0000   1.0000   1.0000
     0.0000   0.0000   0.0000   0.0000

          k = 0.4500 0.2021 0.1054 (  1416 PWs)   bands (ev):

    -9.9199  -9.8905  -6.4680  -6.4473  -1.0508  -1.0445   2.2852   2.5560
     7.9132   8.1175  13.1187  13.1755

     occupation numbers 
     1.0000   1.0000   1.0000   1.0000   1.0000   1.0000   1.0000   1.0000
     0.0000   0.0000   0.0000   0.0000

          k = 0.4500 0.2021-0.1581 (  1418 PWs)   bands (ev):

    -9.9053  -9.9053  -6.4577  -6.4577  -1.0477  -1.0477   2.4188   2.4188
     8.0090   8.0090  13.1475  13.1475

     occupation numbers 
     1.0000   1.0000   1.0000   1.0000   1.0000   1.0000   1.0000   1.0000
     0.0000   0.0000   0.0000   0.0000

          k = 0.5000 0.2309 0.0000 (  1416 PWs)   bands (ev):

    -9.0481  -9.0025  -7.5291  -7.4912  -1.1716  -1.1589   2.8620   3.2017
     7.0750   7.4275  13.0283  13.1509

     occupation numbers 
     1.0000   1.0000   1.0000   1.0000   1.0000   1.0000   1.0000   1.0000
     0.0000   0.0000   0.0000   0.0000

          k = 0.5000 0.2309 0.0527 (  1421 PWs)   bands (ev):

    -9.0450  -9.0055  -7.5266  -7.4938  -1.1708  -1.1598   2.8858   3.1805
     7.0888   7.3944  13.0363  13.1425

     occupation numbers 
     1.0000   1.0000   1.0000   1.0000   1.0000   1.0000   1.0000   1.0000
     0.0000   0.0000   0.0000   0.0000

          k = 0.5000 0.2309 0.1054 (  1418 PWs)   bands (ev):

    -9.0367  -9.0139  -7.5198  -7.5009  -1.1684  -1.1621   2.9505   3.1212
     7.1341   7.3109  13.0585  13.1198

     occupation numbers 
     1.0000   1.0000   1.0000   1.0000   1.0000   1.0000   1.0000   1.0000
     0.0000   0.0000   0.0000   0.0000

          k = 0.5000 0.2309-0.1581 (  1414 PWs)   bands (ev):

    -9.0253  -9.0253  -7.5104  -7.5104  -1.1653  -1.1653   3.0371   3.0371
     7.2130   7.2130  13.0890  13.0890

     occupation numbers 
     1.0000   1.0000   1.0000   1.0000   1.0000   1.0000   1.0000   1.0000
     0.0000   0.0000   0.0000   0.0000

          k = 0.2000 0.0000 0.0000 (  1401 PWs)   bands (ev):

   -13.4052 -13.3254  -1.7258  -0.9048   0.1217   0.1295   0.9715   0.9768
     9.7287  13.8212  14.2678  14.3361

     occupation numbers 
     1.0000   1.0000   1.0000   1.0000   1.0000   1.0000   1.0000   1.0000
     0.0000   0.0000   0.0000   0.0000

          k = 0.2000 0.0000 0.0527 (  1410 PWs)   bands (ev):

   -13.3999 -13.3309  -1.6765  -0.9667   0.1222   0.1290   0.9718   0.9764
     9.9264  13.3478  14.2903  14.3323

     occupation numbers 
     1.0000   1.0000   1.0000   1.0000   1.0000   1.0000   1.0000   1.0000
     0.0000   0.0000   0.0000   0.0000

          k = 0.2000 0.0000 0.1054 (  1405 PWs)   bands (ev):

   -13.3856 -13.3456  -1.5381  -1.1297   0.1236   0.1276   0.9728   0.9754
    10.4911  12.3702  14.3039  14.3238

     occupation numbers 
     1.0000   1.0000   1.0000   1.0000   1.0000   1.0000   1.0000   1.0000
     0.0000   0.0000   0.0000   0.0000

          k = 0.2000 0.0000-0.1581 (  1402 PWs)   bands (ev):

   -13.3657 -13.3657  -1.3400  -1.3400   0.1256   0.1256   0.9741   0.9741
    11.3460  11.3461  14.3132  14.3132

     occupation numbers 
     1.0000   1.0000   1.0000   1.0000   1.0000   1.0000   1.0000   1.0000
     0.0000   0.0000   0.0000   0.0000

          k = 0.2500 0.0289 0.0000 (  1409 PWs)   bands (ev):

   -12.9952 -12.9178  -1.2357  -0.8797  -0.8671  -0.4337   0.3241   0.3323
    10.2592  13.5232  13.6546  14.4369

     occupation numbers 
     1.0000   1.0000   1.0000   1.0000   1.0000   1.0000   1.0000   1.0000
     0.0000   0.0000   0.0000   0.0000

          k = 0.2500 0.0289 0.0527 (  1409 PWs)   bands (ev):

   -12.9901 -12.9231  -1.1873  -0.8788  -0.8679  -0.4939   0.3247   0.3318
    10.4532  13.5309  13.6176  13.8360

     occupation numbers 
     1.0000   1.0000   1.0000   1.0000   1.0000   1.0000   1.0000   1.0000
     0.0000   0.0000   0.0000   0.0000

          k = 0.2500 0.0289 0.1054 (  1408 PWs)   bands (ev):

   -12.9762 -12.9375  -1.0520  -0.8766  -0.8702  -0.6528   0.3262   0.3303
    11.0070  12.8391  13.5589  13.6367

     occupation numbers 
     1.0000   1.0000   1.0000   1.0000   1.0000   1.0000   1.0000   1.0000
     0.0000   0.0000   0.0000   0.0000

          k = 0.2500 0.0289-0.1581 (  1412 PWs)   bands (ev):

   -12.9569 -12.9569  -0.8741  -0.8741  -0.8575  -0.8575   0.3282   0.3282
    11.8437  11.8437  13.5951  13.5952

     occupation numbers 
     1.0000   1.0000   1.0000   1.0000   1.0000   1.0000   1.0000   1.0000
     0.0000   0.0000   0.0000   0.0000

          k = 0.3000 0.0577 0.0000 (  1409 PWs)   bands (ev):

   -12.4714 -12.3971  -2.0441  -2.0243  -0.6150  -0.2746  -0.2631   0.1606
    10.9391  12.2856  12.4710  14.3762

     occupation numbers 
     1.0000   1.0000   1.0000   1.0000   1.0000   1.0000   1.0000   1.0000
     0.0000   0.0000   0.0000   0.0000

          k = 0.3000 0.0577 0.0527 (  1405 PWs)   bands (ev):

   -12.4665 -12.4021  -2.0427  -2.0257  -0.5681  -0.2738  -0.2639   0.1026
    11.1257  12.3009  12.4554  14.2744

     occupation numbers 
     1.0000   1.0000   1.0000   1.0000   1.0000   1.0000   1.0000   1.0000
     0.0000   0.0000   0.0000   0.0000

          k = 0.3000 0.0577 0.1054 (  1408 PWs)   bands (ev):

   -12.4531 -12.4159  -2.0392  -2.0293  -0.4368  -0.2717  -0.2660  -0.0507
    11.6523  12.3476  12.4108  13.4706

     occupation numbers 
     1.0000   1.0000   1.0000   1.0000   1.0000   1.0000   1.0000   1.0000
     0.0000   0.0000   0.0000   0.0000

          k = 0.3000 0.0577-0.1581 (  1404 PWs)   bands (ev):

   -12.4346 -12.4346  -2.0342  -2.0342  -0.2689  -0.2689  -0.2491  -0.2491
    12.2818  12.2818  12.5850  12.5851

     occupation numbers 
     1.0000   1.0000   1.0000   1.0000   1.0000   1.0000   1.0000   1.0000
     0.0000   0.0000   0.0000   0.0000

[...]
     8.0262   8.2524  14.6171  16.1919

     occupation numbers 
     1.0000   1.0000   1.0000   1.0000   1.0000   1.0000   1.0000   1.0000
     0.0000   0.0000   0.0000   0.0000

          k = 0.5000 0.0577 0.1054 (  1422 PWs)   bands (ev):

    -9.7551  -9.7261  -5.5052  -5.4894  -3.1046  -3.0940   2.5886   2.8797
     8.0716   8.2024  14.9618  15.8933

     occupation numbers 
     1.0000   1.0000   1.0000   1.0000   1.0000   1.0000   1.0000   1.0000
     0.0000   0.0000   0.0000   0.0000

          k = 0.5000 0.0577-0.1581 (  1436 PWs)   bands (ev):

    -9.7407  -9.7407  -5.4973  -5.4973  -3.0993  -3.0993   2.7314   2.7314
     8.1358   8.1358  15.4295  15.4295

     occupation numbers 
     1.0000   1.0000   1.0000   1.0000   1.0000   1.0000   1.0000   1.0000
     0.0000   0.0000   0.0000   0.0000

          k = 0.5500 0.0866 0.0000 (  1425 PWs)   bands (ev):

    -8.8867  -8.8359  -6.5675  -6.5308  -3.3419  -3.3180   3.3163   3.7637
     7.0744   7.3192  15.6686  16.1492

     occupation numbers 
     1.0000   1.0000   1.0000   1.0000   1.0000   1.0000   1.0000   1.0000
     0.0000   0.0000   0.0000   0.0000

          k = 0.5500 0.0866 0.0527 (  1429 PWs)   bands (ev):

    -8.8833  -8.8393  -6.5651  -6.5333  -3.3403  -3.3196   3.3457   3.7334
     7.0871   7.2997  15.7301  16.1409

     occupation numbers 
     1.0000   1.0000   1.0000   1.0000   1.0000   1.0000   1.0000   1.0000
     0.0000   0.0000   0.0000   0.0000

          k = 0.5500 0.0866 0.1054 (  1431 PWs)   bands (ev):

    -8.8741  -8.8487  -6.5584  -6.5401  -3.3360  -3.3240   3.4265   3.6505
     7.1251   7.2484  15.8678  16.1064

     occupation numbers 
     1.0000   1.0000   1.0000   1.0000   1.0000   1.0000   1.0000   1.0000
     0.0000   0.0000   0.0000   0.0000

          k = 0.5500 0.0866-0.1581 (  1440 PWs)   bands (ev):

    -8.8614  -8.8614  -6.5493  -6.5493  -3.3300  -3.3300   3.5380   3.5380
     7.1834   7.1834  16.0080  16.0080

     occupation numbers 
     1.0000   1.0000   1.0000   1.0000   1.0000   1.0000   1.0000   1.0000
     0.0000   0.0000   0.0000   0.0000

          k = 0.6000 0.1155 0.0000 (  1447 PWs)   bands (ev):

    -8.2457  -8.2187  -7.2496  -7.2314  -3.4164  -3.3919   3.7941   4.0612
     6.7038   6.8139  16.0954  16.3943

     occupation numbers 
     1.0000   1.0000   1.0000   1.0000   1.0000   1.0000   1.0000   1.0000
     0.0000   0.0000   0.0000   0.0000

          k = 0.6000 0.1155 0.0527 (  1429 PWs)   bands (ev):

    -8.2438  -8.2204  -7.2485  -7.2328  -3.4148  -3.3936   3.8142   4.0461
     6.7044   6.8007  16.1030  16.3417

     occupation numbers 
     1.0000   1.0000   1.0000   1.0000   1.0000   1.0000   1.0000   1.0000
     0.0000   0.0000   0.0000   0.0000

          k = 0.6000 0.1155 0.1054 (  1429 PWs)   bands (ev):

    -8.2387  -8.2252  -7.2454  -7.2364  -3.4103  -3.3981   3.8679   4.0025
     6.7115   6.7682  16.1068  16.2090

     occupation numbers 
     1.0000   1.0000   1.0000   1.0000   1.0000   1.0000   1.0000   1.0000
     0.0000   0.0000   0.0000   0.0000

          k = 0.6000 0.1155-0.1581 (  1428 PWs)   bands (ev):

    -8.2319  -8.2319  -7.2411  -7.2411  -3.4042  -3.4042   3.9377   3.9377
     6.7335   6.7335  16.1220  16.1220

     occupation numbers 
     1.0000   1.0000   1.0000   1.0000   1.0000   1.0000   1.0000   1.0000
     0.0000   0.0000   0.0000   0.0000

          k = 0.5000 0.0000 0.0000 (  1429 PWs)   bands (ev):

    -9.8231  -9.7646  -5.1043  -5.0860  -3.5225  -3.5086   2.4128   3.0114
     8.1412   8.3638  14.4183  16.3465

     occupation numbers 
     1.0000   1.0000   1.0000   1.0000   1.0000   1.0000   1.0000   1.0000
     0.0000   0.0000   0.0000   0.0000

          k = 0.5000 0.0000 0.0527 (  1428 PWs)   bands (ev):

    -9.8193  -9.7686  -5.1030  -5.0872  -3.5216  -3.5096   2.4501   2.9680
     8.1561   8.3487  14.5400  16.1802

     occupation numbers 
     1.0000   1.0000   1.0000   1.0000   1.0000   1.0000   1.0000   1.0000
     0.0000   0.0000   0.0000   0.0000

          k = 0.5000 0.0000 0.1054 (  1428 PWs)   bands (ev):

    -9.8087  -9.7794  -5.0996  -5.0905  -3.5191  -3.5122   2.5537   2.8522
     8.1966   8.3076  14.8714  15.7936

     occupation numbers 
     1.0000   1.0000   1.0000   1.0000   1.0000   1.0000   1.0000   1.0000
     0.0000   0.0000   0.0000   0.0000

          k = 0.5000 0.0000-0.1581 (  1426 PWs)   bands (ev):

    -9.7941  -9.7941  -5.0950  -5.0950  -3.5157  -3.5157   2.6999   2.6999
     8.2520   8.2520  15.3242  15.3242

     occupation numbers 
     1.0000   1.0000   1.0000   1.0000   1.0000   1.0000   1.0000   1.0000
     0.0000   0.0000   0.0000   0.0000

          k = 0.5500 0.0289 0.0000 (  1429 PWs)   bands (ev):

    -8.9765  -8.9239  -5.9304  -5.9040  -4.0519  -4.0323   3.3139   3.8253
     7.1782   7.4147  15.5338  16.3874

     occupation numbers 
     1.0000   1.0000   1.0000   1.0000   1.0000   1.0000   1.0000   1.0000
     0.0000   0.0000   0.0000   0.0000

          k = 0.5500 0.0289 0.0527 (  1434 PWs)   bands (ev):

    -8.9731  -8.9274  -5.9286  -5.9058  -4.0506  -4.0337   3.3464   3.7891
     7.1933   7.3981  15.5701  16.2673

     occupation numbers 
     1.0000   1.0000   1.0000   1.0000   1.0000   1.0000   1.0000   1.0000
     0.0000   0.0000   0.0000   0.0000

          k = 0.5500 0.0289 0.1054 (  1430 PWs)   bands (ev):

    -8.9635  -8.9372  -5.9238  -5.9106  -4.0471  -4.0374   3.4364   3.6919
     7.2352   7.3533  15.6648  16.0299

     occupation numbers 
     1.0000   1.0000   1.0000   1.0000   1.0000   1.0000   1.0000   1.0000
     0.0000   0.0000   0.0000   0.0000

          k = 0.5500 0.0289-0.1581 (  1442 PWs)   bands (ev):

    -8.9504  -8.9504  -5.9172  -5.9172  -4.0423  -4.0423   3.5623   3.5623
     7.2935   7.2935  15.8152  15.8153

     occupation numbers 
     1.0000   1.0000   1.0000   1.0000   1.0000   1.0000   1.0000   1.0000
     0.0000   0.0000   0.0000   0.0000

          k = 0.6000 0.0577 0.0000 (  1431 PWs)   bands (ev):

    -8.1307  -8.0899  -6.8015  -6.7729  -4.2838  -4.2595   4.1075   4.4497
     6.4604   6.6151  16.4217  16.6821

     occupation numbers 
     1.0000   1.0000   1.0000   1.0000   1.0000   1.0000   1.0000   1.0000
     0.0000   0.0000   0.0000   0.0000

          k = 0.6000 0.0577 0.0527 (  1431 PWs)   bands (ev):

    -8.1280  -8.0926  -6.7996  -6.7749  -4.2822  -4.2612   4.1315   4.4285
     6.4670   6.6012  16.2766  16.3349

     occupation numbers 
     1.0000   1.0000   1.0000   1.0000   1.0000   1.0000   1.0000   1.0000
     0.0000   0.0000   0.0000   0.0000

          k = 0.6000 0.0577 0.1054 (  1436 PWs)   bands (ev):

    -8.1205  -8.1001  -6.7945  -6.7802  -4.2779  -4.2657   4.1968   4.3689
     6.4878   6.5655  16.0592  16.0925

     occupation numbers 
     1.0000   1.0000   1.0000   1.0000   1.0000   1.0000   1.0000   1.0000
     0.0000   0.0000   0.0000   0.0000

          k = 0.6000 0.0577-0.1581 (  1440 PWs)   bands (ev):

    -8.1103  -8.1103  -6.7874  -6.7874  -4.2718  -4.2718   4.2843   4.2843
     6.5230   6.5230  15.9909  15.9909

     occupation numbers 
     1.0000   1.0000   1.0000   1.0000   1.0000   1.0000   1.0000   1.0000
     0.0000   0.0000   0.0000   0.0000

          k = 0.6000-0.0000 0.0000 (  1425 PWs)   bands (ev):

    -8.1364  -8.0911  -6.4381  -6.4165  -4.7363  -4.7233   4.2057   4.6254
     6.3307   6.5761  16.2279  16.5677

     occupation numbers 
     1.0000   1.0000   1.0000   1.0000   1.0000   1.0000   1.0000   1.0002
     0.0000   0.0000   0.0000   0.0000

          k = 0.6000-0.0000 0.0527 (  1431 PWs)   bands (ev):

    -8.1334  -8.0942  -6.4366  -6.4179  -4.7355  -4.7242   4.2333   4.5969
     6.3461   6.5582  16.1208  16.1721

     occupation numbers 
     1.0000   1.0000   1.0000   1.0000   1.0000   1.0000   1.0000   1.0001
     0.0000   0.0000   0.0000   0.0000

          k = 0.6000-0.0000 0.1054 (  1443 PWs)   bands (ev):

    -8.1252  -8.1026  -6.4327  -6.4218  -4.7333  -4.7267   4.3092   4.5193
     6.3888   6.5107  15.9160  15.9358

     occupation numbers 
     1.0000   1.0000   1.0000   1.0000   1.0000   1.0000   1.0000   1.0000
     0.0000   0.0000   0.0000   0.0000

          k = 0.6000-0.0000-0.1581 (  1442 PWs)   bands (ev):

    -8.1139  -8.1139  -6.4273  -6.4273  -4.7301  -4.7301   4.4138   4.4138
     6.4486   6.4486  15.8426  15.8427

     occupation numbers 
     1.0000   1.0000   1.0000   1.0000   1.0000   1.0000   1.0000   1.0000
     0.0000   0.0000   0.0000   0.0000

          k = 0.6500 0.0289 0.0000 (  1435 PWs)   bands (ev):

    -7.4897  -7.4651  -6.9498  -6.9443  -4.9767  -4.9628   4.8476   5.1017
     5.8139   5.9811  16.1999  16.3093

     occupation numbers 
     1.0000   1.0000   1.0000   1.0000   1.0000   1.0000   1.0071   1.0707
     0.0363   0.0031   0.0000   0.0000

          k = 0.6500 0.0289 0.0527 (  1433 PWs)   bands (ev):

    -7.4879  -7.4666  -6.9495  -6.9448  -4.9758  -4.9638   4.8694   5.0908
     5.8192   5.9623  16.0744  16.1339

     occupation numbers 
     1.0000   1.0000   1.0000   1.0000   1.0000   1.0000   1.0094   1.0673
     0.0340   0.0042   0.0000   0.0000

          k = 0.6500 0.0289 0.1054 (  1441 PWs)   bands (ev):

    -7.4832  -7.4709  -6.9488  -6.9460  -4.9734  -4.9664   4.9264   5.0558
     5.8368   5.9175  15.8782  15.8929

     occupation numbers 
     1.0000   1.0000   1.0000   1.0000   1.0000   1.0000   1.0183   1.0555
     0.0270   0.0086   0.0000   0.0000

          k = 0.6500 0.0289-0.1581 (  1442 PWs)   bands (ev):

    -7.4770  -7.4770  -6.9475  -6.9475  -4.9700  -4.9700   4.9966   4.9966
     5.8703   5.8703  15.7979  15.7979

     occupation numbers 
     1.0000   1.0000   1.0000   1.0000   1.0000   1.0000   1.0359   1.0359
     0.0171   0.0171   0.0000   0.0000

     the Fermi energy is     5.5580 ev

     WARNING: integrated charge=    16.00336027, expected=    16.00000000

!    total energy              =     -73.77286737 Ry
     total all-electron energy =      -304.829259 Ry
     estimated scf accuracy    <          2.3E-10 Ry
     smearing contrib. (-TS)   =       0.00007432 Ry
     internal energy E=F+TS    =     -73.77294169 Ry

     The total energy is F=E-TS. E is the sum of the following terms:
     one-electron contribution =     -23.00257636 Ry
     hartree contribution      =      18.95717039 Ry
     xc contribution           =     -18.54831790 Ry
     ewald contribution        =     -26.51210612 Ry
     one-center paw contrib.   =     -24.66711171 Ry
      -> PAW hartree energy AE =       9.50675578 Ry
      -> PAW hartree energy PS =      -9.49813791 Ry
      -> PAW xc energy AE      =     -10.67755689 Ry
      -> PAW xc energy PS      =       4.50214898 Ry
      -> total E_H with PAW    =      18.96578826 Ry
      -> total E_XC with PAW   =     -24.72372581 Ry

     convergence has been achieved in   9 iterations

     Forces acting on atoms (cartesian axes, Ry/au):

     atom    1 type  1   force =    -0.00000000   -0.00000000    0.00000000
     atom    2 type  1   force =     0.00000000    0.00000000    0.00000000
     atom    3 type  1   force =     0.00000000    0.00000000    0.00000000
     atom    4 type  1   force =    -0.00000000   -0.00000000    0.00000000
     The non-local contrib.  to forces
     atom    1 type  1   force =    -0.00000000   -0.00000000    0.00000000
     atom    2 type  1   force =     0.00000000    0.00000000    0.00000000
     atom    3 type  1   force =     0.00000000   -0.00000000    0.00000000
     atom    4 type  1   force =    -0.00000000    0.00000000    0.00000000
     The ionic contribution  to forces
     atom    1 type  1   force =    -0.00000000    0.00000000   -0.00000000
     atom    2 type  1   force =    -0.00000000   -0.00000000    0.00000000
     atom    3 type  1   force =    -0.00000000   -0.00000000   -0.00000000
     atom    4 type  1   force =     0.00000000    0.00000000    0.00000000
     The local contribution  to forces
     atom    1 type  1   force =     0.00000000    0.00000000    0.00000000
     atom    2 type  1   force =    -0.00000000   -0.00000000    0.00000000
     atom    3 type  1   force =    -0.00000000   -0.00000000    0.00000000
     atom    4 type  1   force =     0.00000000    0.00000000    0.00000000
     The core correction contribution to forces
     atom    1 type  1   force =    -0.00000000    0.00000000    0.00000000
     atom    2 type  1   force =     0.00000000   -0.00000000   -0.00000000
     atom    3 type  1   force =     0.00000000    0.00000000   -0.00000000
     atom    4 type  1   force =    -0.00000000   -0.00000000   -0.00000000
     The Hubbard contrib.    to forces
     atom    1 type  1   force =     0.00000000    0.00000000    0.00000000
     atom    2 type  1   force =     0.00000000    0.00000000    0.00000000
     atom    3 type  1   force =     0.00000000    0.00000000    0.00000000
     atom    4 type  1   force =     0.00000000    0.00000000    0.00000000
     The SCF correction term to forces
     atom    1 type  1   force =     0.00000000    0.00000000   -0.00000000
     atom    2 type  1   force =    -0.00000000   -0.00000000   -0.00000000
     atom    3 type  1   force =     0.00000000   -0.00000000   -0.00000000
     atom    4 type  1   force =    -0.00000000    0.00000000   -0.00000000

     Total force =     0.000000     Total SCF correction =     0.000000


     Computing stress (Cartesian axis) and pressure

          total   stress  (Ry/bohr**3)                   (kbar)     P=        0.92
  -0.00000599  -0.00000000   0.00000000           -0.88       -0.00        0.00
   0.00000000  -0.00000599   0.00000000            0.00       -0.88        0.00
   0.00000000   0.00000000   0.00003067            0.00        0.00        4.51

     kinetic stress (kbar)   9928.37      0.00      0.00
                                0.00   9928.37      0.00
                                0.00      0.00  11277.24

     local   stress (kbar) -25907.00      0.00     -0.00
                                0.00 -25907.00     -0.00
                               -0.00     -0.00  25188.03

     nonloc. stress (kbar)   2500.22     -0.00      0.00
                               -0.00   2500.22      0.00
                                0.00      0.00   2279.87

     hartree stress (kbar)   9163.20     -0.00      0.00
                               -0.00   9163.20      0.00
                                0.00      0.00  -8281.00

     exc-cor stress (kbar)   -178.65      0.00      0.00
                                0.00   -178.65      0.00
                                0.00      0.00   -289.73

     corecor stress (kbar)  -2392.05     -0.00     -0.00
                               -0.00  -2392.05      0.00
                               -0.00      0.00  -2351.09

     ewald   stress (kbar)   6885.02     -0.00      0.00
                               -0.00   6885.02     -0.00
                                0.00     -0.00 -27818.80

     hubbard stress (kbar)      0.00      0.00      0.00
                                0.00      0.00      0.00
                                0.00      0.00      0.00

     DFT-D   stress (kbar)      0.00      0.00      0.00
                                0.00      0.00      0.00
                                0.00      0.00      0.00

     XDM     stress (kbar)      0.00      0.00      0.00
                                0.00      0.00      0.00
                                0.00      0.00      0.00

     dft-nl  stress (kbar)      0.00      0.00      0.00
                                0.00      0.00      0.00
                                0.00      0.00      0.00

     TS-vdW  stress (kbar)      0.00      0.00      0.00
                                0.00      0.00      0.00
                                0.00      0.00      0.00

     MDB     stress (kbar)      0.00      0.00      0.00
                                0.00      0.00      0.00
                                0.00      0.00      0.00

     3D-RISM stress (kbar)      0.00      0.00      0.00
                                0.00      0.00      0.00
                                0.00      0.00      0.00


     Writing all to output data dir ./out/graphite.save/ :
     XML data file, charge density, pseudopotentials, collected wavefunctions

     init_run     :      0.32s CPU      0.34s WALL (       1 calls)
     electrons    :      6.41s CPU      6.64s WALL (       1 calls)
     forces       :      0.05s CPU      0.05s WALL (       1 calls)
     stress       :      0.20s CPU      0.20s WALL (       1 calls)

     Called by init_run:
     wfcinit      :      0.26s CPU      0.27s WALL (       1 calls)
     wfcinit:atom :      0.00s CPU      0.00s WALL (     176 calls)
     wfcinit:wfcr :      0.23s CPU      0.24s WALL (     176 calls)
     potinit      :      0.02s CPU      0.03s WALL (       1 calls)
     hinit0       :      0.02s CPU      0.02s WALL (       1 calls)

     Called by electrons:
     c_bands      :      5.38s CPU      5.57s WALL (       9 calls)
     sum_band     :      0.79s CPU      0.82s WALL (       9 calls)
     v_of_rho     :      0.04s CPU      0.04s WALL (      10 calls)
     v_h          :      0.00s CPU      0.00s WALL (      10 calls)
     v_xc         :      0.04s CPU      0.04s WALL (      12 calls)
     newd         :      0.02s CPU      0.02s WALL (      10 calls)
     PAW_pot      :      0.19s CPU      0.19s WALL (      10 calls)
     mix_rho      :      0.01s CPU      0.01s WALL (       9 calls)

     Called by c_bands:
     init_us_2    :      0.08s CPU      0.08s WALL (    3696 calls)
     cegterg      :      5.23s CPU      5.42s WALL (    1584 calls)

     Called by sum_band:
     sum_band:wei :      0.01s CPU      0.01s WALL (       9 calls)
     sum_band:loo :      0.76s CPU      0.79s WALL (       9 calls)
     sum_band:buf :      0.00s CPU      0.00s WALL (    1584 calls)
     sum_band:ini :      0.03s CPU      0.04s WALL (    1584 calls)
     sum_band:cal :      0.09s CPU      0.09s WALL (    1584 calls)
     sum_band:bec :      0.00s CPU      0.00s WALL (    1584 calls)
     addusdens    :      0.01s CPU      0.01s WALL (       9 calls)
                                        0.00s GPU  (       9 calls)
     addusd:skk   :      0.00s CPU      0.00s WALL (       9 calls)
                                        0.00s GPU  (       9 calls)

     Called by *egterg:
     cdiaghg      :      0.61s CPU      0.62s WALL (    6337 calls)
     cegterg:over :      0.36s CPU      0.37s WALL (    4753 calls)
     cegterg:upda :      0.12s CPU      0.12s WALL (    4753 calls)
     cegterg:last :      0.16s CPU      0.16s WALL (    3479 calls)
     h_psi        :      3.82s CPU      3.97s WALL (    6513 calls)
     s_psi        :      0.14s CPU      0.15s WALL (    6513 calls)
     g_psi        :      0.01s CPU      0.01s WALL (    4753 calls)

     Called by h_psi:
     h_psi:calbec :      0.29s CPU      0.30s WALL (    6513 calls)
     vloc_psi     :      3.36s CPU      3.49s WALL (    6513 calls)
                                        0.00s GPU  (    6513 calls)
     add_vuspsi   :      0.16s CPU      0.16s WALL (    6513 calls)

     General routines
     calbec       :      0.53s CPU      0.54s WALL (   11089 calls)
     fft          :      0.04s CPU      0.04s WALL (     153 calls)
     ffts         :      0.00s CPU      0.00s WALL (      19 calls)
     fftw         :      3.64s CPU      3.77s WALL (  127682 calls)
     interpolate  :      0.00s CPU      0.00s WALL (      10 calls)

     Parallel routines

     PAW routines
     PAW_pot      :      0.19s CPU      0.19s WALL (      10 calls)
     PAW_symme    :      0.00s CPU      0.00s WALL (      19 calls)

     PWSCF        :      7.07s CPU      7.37s WALL


   This run was terminated on:  14:41:14   7May2026            

=------------------------------------------------------------------------------=
   JOB DONE.
=------------------------------------------------------------------------------=
