
     Program PWSCF v.7.5 starts on  7May2026 at 12:58:36 

     This program is part of the open-source Quantum ESPRESSO suite
     for quantum simulation of materials; please cite
         "P. Giannozzi et al., J. Phys.:Condens. Matter 21 395502 (2009);
         "P. Giannozzi et al., J. Phys.:Condens. Matter 29 465901 (2017);
         "P. Giannozzi et al., J. Chem. Phys. 152 154105 (2020);
          URL http://www.quantum-espresso.org", 
     in publications or presentations arising from this work. More details at
     http://www.quantum-espresso.org/quote

     Parallel version (MPI), running on     6 processors

     MPI processes distributed on     1 nodes
     0 MiB available memory on the printing compute node when the environment starts

     Reading input from silicon.nscf.in

     Current dimensions of program PWSCF are:
     Max number of different atomic species (ntypx) = 10
     Max number of k-points (npk) =  40000
     Max angular momentum in pseudopotentials (lmaxx) =  4

     Atomic positions and unit cell read from directory:
     ./out/silicon.save/

     Message from routine setup:
     using ibrav=0 with symmetry is DISCOURAGED, use correct ibrav instead

     R & G space division:  proc/nbgrp/npool/nimage =       6
     Subspace diagonalization in iterative solution of the eigenvalue problem:
     a serial algorithm will be used


     Parallelization info
     --------------------
     sticks:   dense  smooth     PW     G-vecs:    dense   smooth      PW
     Min         142      72     24                 2770      993     189
     Max         144      73     26                 2773      995     190
     Sum         859     433    151                16625     5961    1139

     Using Slab Decomposition



     bravais-lattice index     =            0
     lattice parameter (alat)  =       7.2125  a.u.
     unit-cell volume          =     265.3020 (a.u.)^3
     number of atoms/cell      =            2
     number of atomic types    =            1
     number of electrons       =         8.00
     number of Kohn-Sham states=           12
     kinetic-energy cutoff     =      30.0000  Ry
     charge density cutoff     =     240.0000  Ry
     Exchange-correlation= PBE
                           (   1   4   3   4   0   0   0)

     celldm(1)=   7.212489  celldm(2)=   0.000000  celldm(3)=   0.000000
     celldm(4)=   0.000000  celldm(5)=   0.000000  celldm(6)=   0.000000

     crystal axes: (cart. coord. in units of alat)
               a(1) = (  -0.707107   0.000000   0.707107 )  
               a(2) = (   0.000000   0.707107   0.707107 )  
               a(3) = (  -0.707107   0.707107   0.000000 )  

     reciprocal axes: (cart. coord. in units 2 pi/alat)
               b(1) = ( -0.707107 -0.707107  0.707107 )  
               b(2) = (  0.707107  0.707107  0.707107 )  
               b(3) = ( -0.707107  0.707107 -0.707107 )  


     PseudoPot. # 1 for Si read from file:
     ./pseudo/Si.pbe-n-rrkjus_psl.1.0.0.UPF
     MD5 check sum: 0b0bb1205258b0d07b9f9672cf965d36
     Pseudo is Ultrasoft + core correction, Zval =  4.0
     Generated using "atomic" code by A. Dal Corso  v.5.1
     Using radial grid of 1141 points,  6 beta functions with: 
                l(1) =   0
                l(2) =   0
                l(3) =   1
                l(4) =   1
                l(5) =   2
                l(6) =   2
     Q(r) pseudized with 0 coefficients 


     atomic species   valence    mass     pseudopotential
     Si                4.00    28.08550     Si( 1.00)

     48 Sym. Ops., with inversion, found (24 have fractional translation)


                                    s                        frac. trans.

      isym =  1     identity                                     

 cryst.   s( 1) = (     1          0          0      )
                  (     0          1          0      )
                  (     0          0          1      )

 cart.    s( 1) = (  1.0000000  0.0000000 -0.0000000 )
                  (  0.0000000  1.0000000  0.0000000 )
                  ( -0.0000000 -0.0000000  1.0000000 )


      isym =  2     180 deg rotation - cart. axis [0,0,1]        

 cryst.   s( 2) = (     0          1         -1      )
                  (     1          0         -1      )
                  (     0          0         -1      )

 cart.    s( 2) = ( -1.0000000 -0.0000000 -0.0000000 )
                  ( -0.0000000 -1.0000000  0.0000000 )
                  (  0.0000000  0.0000000  1.0000000 )


      isym =  3     180 deg rotation - cart. axis [0,1,0]        

 cryst.   s( 3) = (    -1          0          0      )
                  (    -1          0          1      )
                  (    -1          1          0      )

 cart.    s( 3) = ( -1.0000000  0.0000000  0.0000000 )
                  ( -0.0000000  1.0000000 -0.0000000 )
                  (  0.0000000 -0.0000000 -1.0000000 )


      isym =  4     180 deg rotation - cart. axis [1,0,0]        

 cryst.   s( 4) = (     0         -1          1      )
                  (     0         -1          0      )
                  (     1         -1          0      )

 cart.    s( 4) = (  1.0000000 -0.0000000  0.0000000 )
                  (  0.0000000 -1.0000000 -0.0000000 )
                  ( -0.0000000  0.0000000 -1.0000000 )


      isym =  5     180 deg rotation - cart. axis [1,1,0]        

 cryst.   s( 5) = (     0         -1          0      )    f =(  0.2500000 )
                  (    -1          0          0      )       (  0.2500000 )
                  (     0          0         -1      )       (  0.2500000 )

 cart.    s( 5) = (  0.0000000  1.0000000  0.0000000 )    f =( -0.3535534 )
                  (  1.0000000  0.0000000 -0.0000000 )       (  0.3535534 )
                  ( -0.0000000 -0.0000000 -1.0000000 )       (  0.3535534 )


      isym =  6     180 deg rotation - cart. axis [1,-1,0]       

 cryst.   s( 6) = (    -1          0          1      )    f =(  0.2500000 )
                  (     0         -1          1      )       (  0.2500000 )
                  (     0          0          1      )       (  0.2500000 )

 cart.    s( 6) = ( -0.0000000 -1.0000000  0.0000000 )    f =( -0.3535534 )
                  ( -1.0000000 -0.0000000 -0.0000000 )       (  0.3535534 )
                  (  0.0000000  0.0000000 -1.0000000 )       (  0.3535534 )


      isym =  7      90 deg rotation - cart. axis [0,0,-1]       

 cryst.   s( 7) = (     0          1          0      )    f =(  0.2500000 )
                  (     0          1         -1      )       (  0.2500000 )
                  (    -1          1          0      )       (  0.2500000 )

 cart.    s( 7) = ( -0.0000000  1.0000000 -0.0000000 )    f =( -0.3535534 )
                  ( -1.0000000  0.0000000  0.0000000 )       (  0.3535534 )
                  (  0.0000000 -0.0000000  1.0000000 )       (  0.3535534 )


      isym =  8      90 deg rotation - cart. axis [0,0,1]        

 cryst.   s( 8) = (     1          0         -1      )    f =(  0.2500000 )
                  (     1          0          0      )       (  0.2500000 )
                  (     1         -1          0      )       (  0.2500000 )

 cart.    s( 8) = (  0.0000000 -1.0000000 -0.0000000 )    f =( -0.3535534 )
                  (  1.0000000 -0.0000000  0.0000000 )       (  0.3535534 )
                  ( -0.0000000  0.0000000  1.0000000 )       (  0.3535534 )


      isym =  9     180 deg rotation - cart. axis [1,0,1]        

 cryst.   s( 9) = (    -1          0          0      )    f =(  0.2500000 )
                  (     0          0         -1      )       (  0.2500000 )
                  (     0         -1          0      )       (  0.2500000 )

 cart.    s( 9) = ( -0.0000000 -0.0000000  1.0000000 )    f =( -0.3535534 )
                  (  0.0000000 -1.0000000  0.0000000 )       (  0.3535534 )
                  (  1.0000000  0.0000000 -0.0000000 )       (  0.3535534 )


      isym = 10     180 deg rotation - cart. axis [-1,0,1]       

 cryst.   s(10) = (     1          0          0      )    f =(  0.2500000 )
                  (     1         -1          0      )       (  0.2500000 )
                  (     1          0         -1      )       (  0.2500000 )

 cart.    s(10) = (  0.0000000 -0.0000000 -1.0000000 )    f =( -0.3535534 )
                  ( -0.0000000 -1.0000000 -0.0000000 )       (  0.3535534 )
                  ( -1.0000000  0.0000000  0.0000000 )       (  0.3535534 )


      isym = 11      90 deg rotation - cart. axis [0,1,0]        

 cryst.   s(11) = (     0          1         -1      )    f =(  0.2500000 )
                  (    -1          1          0      )       (  0.2500000 )
                  (     0          1          0      )       (  0.2500000 )

 cart.    s(11) = (  0.0000000  0.0000000  1.0000000 )    f =( -0.3535534 )
                  ( -0.0000000  1.0000000  0.0000000 )       (  0.3535534 )
                  ( -1.0000000 -0.0000000 -0.0000000 )       (  0.3535534 )


      isym = 12      90 deg rotation - cart. axis [0,-1,0]       

 cryst.   s(12) = (     0         -1          1      )    f =(  0.2500000 )
                  (     0          0          1      )       (  0.2500000 )
                  (    -1          0          1      )       (  0.2500000 )

 cart.    s(12) = ( -0.0000000  0.0000000 -1.0000000 )    f =( -0.3535534 )
                  (  0.0000000  1.0000000 -0.0000000 )       (  0.3535534 )
                  (  1.0000000 -0.0000000  0.0000000 )       (  0.3535534 )


      isym = 13     180 deg rotation - cart. axis [0,1,1]        

 cryst.   s(13) = (    -1          1          0      )    f =(  0.2500000 )
                  (     0          1          0      )       (  0.2500000 )
                  (     0          1         -1      )       (  0.2500000 )

 cart.    s(13) = ( -1.0000000 -0.0000000  0.0000000 )    f =( -0.3535534 )
                  ( -0.0000000  0.0000000  1.0000000 )       (  0.3535534 )
                  (  0.0000000  1.0000000 -0.0000000 )       (  0.3535534 )


      isym = 14     180 deg rotation - cart. axis [0,1,-1]       

 cryst.   s(14) = (     0          0         -1      )    f =(  0.2500000 )
                  (     0         -1          0      )       (  0.2500000 )
                  (    -1          0          0      )       (  0.2500000 )

 cart.    s(14) = ( -1.0000000  0.0000000 -0.0000000 )    f =( -0.3535534 )
                  ( -0.0000000 -0.0000000 -1.0000000 )       (  0.3535534 )
                  (  0.0000000 -1.0000000  0.0000000 )       (  0.3535534 )


      isym = 15      90 deg rotation - cart. axis [-1,0,0]       

 cryst.   s(15) = (     0          0          1      )    f =(  0.2500000 )
                  (    -1          0          1      )       (  0.2500000 )
                  (     0         -1          1      )       (  0.2500000 )

 cart.    s(15) = (  1.0000000  0.0000000  0.0000000 )    f =( -0.3535534 )
                  (  0.0000000 -0.0000000  1.0000000 )       (  0.3535534 )
                  ( -0.0000000 -1.0000000 -0.0000000 )       (  0.3535534 )


      isym = 16      90 deg rotation - cart. axis [1,0,0]        

 cryst.   s(16) = (     1         -1          0      )    f =(  0.2500000 )
                  (     1          0         -1      )       (  0.2500000 )
                  (     1          0          0      )       (  0.2500000 )

 cart.    s(16) = (  1.0000000 -0.0000000 -0.0000000 )    f =( -0.3535534 )
                  (  0.0000000  0.0000000 -1.0000000 )       (  0.3535534 )
                  ( -0.0000000  1.0000000  0.0000000 )       (  0.3535534 )


      isym = 17     120 deg rotation - cart. axis [-1,-1,-1]     

 cryst.   s(17) = (    -1          0          1      )
                  (    -1          1          0      )
                  (    -1          0          0      )

 cart.    s(17) = ( -0.0000000  1.0000000  0.0000000 )
                  (  0.0000000  0.0000000  1.0000000 )
                  (  1.0000000 -0.0000000 -0.0000000 )


      isym = 18     120 deg rotation - cart. axis [-1,1,1]       

 cryst.   s(18) = (     0          1          0      )
                  (     0          0          1      )
                  (     1          0          0      )

 cart.    s(18) = (  0.0000000 -1.0000000  0.0000000 )
                  ( -0.0000000 -0.0000000  1.0000000 )
                  ( -1.0000000  0.0000000 -0.0000000 )


      isym = 19     120 deg rotation - cart. axis [1,1,-1]       

 cryst.   s(19) = (     1          0         -1      )
                  (     0          0         -1      )
                  (     0          1         -1      )

 cart.    s(19) = (  0.0000000  1.0000000 -0.0000000 )
                  ( -0.0000000  0.0000000 -1.0000000 )
                  ( -1.0000000 -0.0000000  0.0000000 )


      isym = 20     120 deg rotation - cart. axis [1,-1,1]       

 cryst.   s(20) = (     0         -1          0      )
                  (     1         -1          0      )
                  (     0         -1          1      )

 cart.    s(20) = ( -0.0000000 -1.0000000 -0.0000000 )
                  (  0.0000000 -0.0000000 -1.0000000 )
                  (  1.0000000  0.0000000  0.0000000 )


      isym = 21     120 deg rotation - cart. axis [1,1,1]        

 cryst.   s(21) = (     0          0         -1      )
                  (     0          1         -1      )
                  (     1          0         -1      )

 cart.    s(21) = (  0.0000000 -0.0000000  1.0000000 )
                  (  1.0000000  0.0000000  0.0000000 )
                  ( -0.0000000  1.0000000 -0.0000000 )


      isym = 22     120 deg rotation - cart. axis [-1,1,-1]      

 cryst.   s(22) = (    -1          1          0      )
                  (    -1          0          0      )
                  (    -1          0          1      )

 cart.    s(22) = ( -0.0000000  0.0000000  1.0000000 )
                  ( -1.0000000 -0.0000000  0.0000000 )
                  (  0.0000000 -1.0000000 -0.0000000 )


      isym = 23     120 deg rotation - cart. axis [1,-1,-1]      

 cryst.   s(23) = (     0          0          1      )
                  (     1          0          0      )
                  (     0          1          0      )

 cart.    s(23) = ( -0.0000000 -0.0000000 -1.0000000 )
                  ( -1.0000000  0.0000000 -0.0000000 )
                  (  0.0000000  1.0000000  0.0000000 )


      isym = 24     120 deg rotation - cart. axis [-1,-1,1]      

 cryst.   s(24) = (     1         -1          0      )
                  (     0         -1          1      )
                  (     0         -1          0      )

 cart.    s(24) = (  0.0000000  0.0000000 -1.0000000 )
                  (  1.0000000 -0.0000000 -0.0000000 )
                  ( -0.0000000 -1.0000000  0.0000000 )


      isym = 25     inversion                                    

 cryst.   s(25) = (    -1          0          0      )    f =(  0.2500000 )
                  (     0         -1          0      )       (  0.2500000 )
                  (     0          0         -1      )       (  0.2500000 )

 cart.    s(25) = ( -1.0000000 -0.0000000  0.0000000 )    f =( -0.3535534 )
                  ( -0.0000000 -1.0000000 -0.0000000 )       (  0.3535534 )
                  (  0.0000000  0.0000000 -1.0000000 )       (  0.3535534 )


      isym = 26     inv. 180 deg rotation - cart. axis [0,0,1]   

 cryst.   s(26) = (     0         -1          1      )    f =(  0.2500000 )
                  (    -1          0          1      )       (  0.2500000 )
                  (     0          0          1      )       (  0.2500000 )

 cart.    s(26) = (  1.0000000  0.0000000  0.0000000 )    f =( -0.3535534 )
                  (  0.0000000  1.0000000 -0.0000000 )       (  0.3535534 )
                  ( -0.0000000 -0.0000000 -1.0000000 )       (  0.3535534 )


      isym = 27     inv. 180 deg rotation - cart. axis [0,1,0]   

 cryst.   s(27) = (     1          0          0      )    f =(  0.2500000 )
                  (     1          0         -1      )       (  0.2500000 )
                  (     1         -1          0      )       (  0.2500000 )

 cart.    s(27) = (  1.0000000 -0.0000000 -0.0000000 )    f =( -0.3535534 )
                  (  0.0000000 -1.0000000  0.0000000 )       (  0.3535534 )
                  ( -0.0000000  0.0000000  1.0000000 )       (  0.3535534 )


      isym = 28     inv. 180 deg rotation - cart. axis [1,0,0]   

 cryst.   s(28) = (     0          1         -1      )    f =(  0.2500000 )
                  (     0          1          0      )       (  0.2500000 )
                  (    -1          1          0      )       (  0.2500000 )

 cart.    s(28) = ( -1.0000000  0.0000000 -0.0000000 )    f =( -0.3535534 )
                  ( -0.0000000  1.0000000  0.0000000 )       (  0.3535534 )
                  (  0.0000000 -0.0000000  1.0000000 )       (  0.3535534 )


      isym = 29     inv. 180 deg rotation - cart. axis [1,1,0]   

 cryst.   s(29) = (     0          1          0      )
                  (     1          0          0      )
                  (     0          0          1      )

 cart.    s(29) = ( -0.0000000 -1.0000000 -0.0000000 )
                  ( -1.0000000 -0.0000000  0.0000000 )
                  (  0.0000000  0.0000000  1.0000000 )


      isym = 30     inv. 180 deg rotation - cart. axis [1,-1,0]  

 cryst.   s(30) = (     1          0         -1      )
                  (     0          1         -1      )
                  (     0          0         -1      )

 cart.    s(30) = (  0.0000000  1.0000000 -0.0000000 )
                  (  1.0000000  0.0000000  0.0000000 )
                  ( -0.0000000 -0.0000000  1.0000000 )


      isym = 31     inv.  90 deg rotation - cart. axis [0,0,-1]  

 cryst.   s(31) = (     0         -1          0      )
                  (     0         -1          1      )
                  (     1         -1          0      )

 cart.    s(31) = (  0.0000000 -1.0000000  0.0000000 )
                  (  1.0000000 -0.0000000 -0.0000000 )
                  ( -0.0000000  0.0000000 -1.0000000 )


      isym = 32     inv.  90 deg rotation - cart. axis [0,0,1]   

 cryst.   s(32) = (    -1          0          1      )
                  (    -1          0          0      )
                  (    -1          1          0      )

 cart.    s(32) = ( -0.0000000  1.0000000  0.0000000 )
                  ( -1.0000000  0.0000000 -0.0000000 )
                  (  0.0000000 -0.0000000 -1.0000000 )


      isym = 33     inv. 180 deg rotation - cart. axis [1,0,1]   

 cryst.   s(33) = (     1          0          0      )
                  (     0          0          1      )
                  (     0          1          0      )

 cart.    s(33) = (  0.0000000  0.0000000 -1.0000000 )
                  ( -0.0000000  1.0000000 -0.0000000 )
                  ( -1.0000000 -0.0000000  0.0000000 )


      isym = 34     inv. 180 deg rotation - cart. axis [-1,0,1]  

 cryst.   s(34) = (    -1          0          0      )
                  (    -1          1          0      )
                  (    -1          0          1      )

 cart.    s(34) = ( -0.0000000  0.0000000  1.0000000 )
                  (  0.0000000  1.0000000  0.0000000 )
                  (  1.0000000 -0.0000000 -0.0000000 )


      isym = 35     inv.  90 deg rotation - cart. axis [0,1,0]   

 cryst.   s(35) = (     0         -1          1      )
                  (     1         -1          0      )
                  (     0         -1          0      )

 cart.    s(35) = ( -0.0000000 -0.0000000 -1.0000000 )
                  (  0.0000000 -1.0000000 -0.0000000 )
                  (  1.0000000  0.0000000  0.0000000 )


      isym = 36     inv.  90 deg rotation - cart. axis [0,-1,0]  

 cryst.   s(36) = (     0          1         -1      )
                  (     0          0         -1      )
                  (     1          0         -1      )

 cart.    s(36) = (  0.0000000 -0.0000000  1.0000000 )
                  ( -0.0000000 -1.0000000  0.0000000 )
                  ( -1.0000000  0.0000000 -0.0000000 )


      isym = 37     inv. 180 deg rotation - cart. axis [0,1,1]   

 cryst.   s(37) = (     1         -1          0      )
                  (     0         -1          0      )
                  (     0         -1          1      )

 cart.    s(37) = (  1.0000000  0.0000000 -0.0000000 )
                  (  0.0000000 -0.0000000 -1.0000000 )
                  ( -0.0000000 -1.0000000  0.0000000 )


      isym = 38     inv. 180 deg rotation - cart. axis [0,1,-1]  

 cryst.   s(38) = (     0          0          1      )
                  (     0          1          0      )
                  (     1          0          0      )

 cart.    s(38) = (  1.0000000 -0.0000000  0.0000000 )
                  (  0.0000000  0.0000000  1.0000000 )
                  ( -0.0000000  1.0000000 -0.0000000 )


      isym = 39     inv.  90 deg rotation - cart. axis [-1,0,0]  

 cryst.   s(39) = (     0          0         -1      )
                  (     1          0         -1      )
                  (     0          1         -1      )

 cart.    s(39) = ( -1.0000000 -0.0000000 -0.0000000 )
                  ( -0.0000000  0.0000000 -1.0000000 )
                  (  0.0000000  1.0000000  0.0000000 )


      isym = 40     inv.  90 deg rotation - cart. axis [1,0,0]   

 cryst.   s(40) = (    -1          1          0      )
                  (    -1          0          1      )
                  (    -1          0          0      )

 cart.    s(40) = ( -1.0000000  0.0000000  0.0000000 )
                  ( -0.0000000 -0.0000000  1.0000000 )
                  (  0.0000000 -1.0000000 -0.0000000 )


      isym = 41     inv. 120 deg rotation - cart. axis [-1,-1,-1]

 cryst.   s(41) = (     1          0         -1      )    f =(  0.2500000 )
                  (     1         -1          0      )       (  0.2500000 )
                  (     1          0          0      )       (  0.2500000 )

 cart.    s(41) = (  0.0000000 -1.0000000 -0.0000000 )    f =( -0.3535534 )
                  ( -0.0000000 -0.0000000 -1.0000000 )       (  0.3535534 )
                  ( -1.0000000  0.0000000  0.0000000 )       (  0.3535534 )


      isym = 42     inv. 120 deg rotation - cart. axis [-1,1,1]  

 cryst.   s(42) = (     0         -1          0      )    f =(  0.2500000 )
                  (     0          0         -1      )       (  0.2500000 )
                  (    -1          0          0      )       (  0.2500000 )

 cart.    s(42) = ( -0.0000000  1.0000000 -0.0000000 )    f =( -0.3535534 )
                  (  0.0000000  0.0000000 -1.0000000 )       (  0.3535534 )
                  (  1.0000000 -0.0000000  0.0000000 )       (  0.3535534 )


      isym = 43     inv. 120 deg rotation - cart. axis [1,1,-1]  

 cryst.   s(43) = (    -1          0          1      )    f =(  0.2500000 )
                  (     0          0          1      )       (  0.2500000 )
                  (     0         -1          1      )       (  0.2500000 )

 cart.    s(43) = ( -0.0000000 -1.0000000  0.0000000 )    f =( -0.3535534 )
                  (  0.0000000 -0.0000000  1.0000000 )       (  0.3535534 )
                  (  1.0000000  0.0000000 -0.0000000 )       (  0.3535534 )


      isym = 44     inv. 120 deg rotation - cart. axis [1,-1,1]  

 cryst.   s(44) = (     0          1          0      )    f =(  0.2500000 )
                  (    -1          1          0      )       (  0.2500000 )
                  (     0          1         -1      )       (  0.2500000 )

 cart.    s(44) = (  0.0000000  1.0000000  0.0000000 )    f =( -0.3535534 )
                  ( -0.0000000  0.0000000  1.0000000 )       (  0.3535534 )
                  ( -1.0000000 -0.0000000 -0.0000000 )       (  0.3535534 )


      isym = 45     inv. 120 deg rotation - cart. axis [1,1,1]   

 cryst.   s(45) = (     0          0          1      )    f =(  0.2500000 )
                  (     0         -1          1      )       (  0.2500000 )
                  (    -1          0          1      )       (  0.2500000 )

 cart.    s(45) = ( -0.0000000  0.0000000 -1.0000000 )    f =( -0.3535534 )
                  ( -1.0000000 -0.0000000 -0.0000000 )       (  0.3535534 )
                  (  0.0000000 -1.0000000  0.0000000 )       (  0.3535534 )


      isym = 46     inv. 120 deg rotation - cart. axis [-1,1,-1] 

 cryst.   s(46) = (     1         -1          0      )    f =(  0.2500000 )
                  (     1          0          0      )       (  0.2500000 )
                  (     1          0         -1      )       (  0.2500000 )

 cart.    s(46) = (  0.0000000 -0.0000000 -1.0000000 )    f =( -0.3535534 )
                  (  1.0000000  0.0000000 -0.0000000 )       (  0.3535534 )
                  ( -0.0000000  1.0000000  0.0000000 )       (  0.3535534 )


      isym = 47     inv. 120 deg rotation - cart. axis [1,-1,-1] 

 cryst.   s(47) = (     0          0         -1      )    f =(  0.2500000 )
                  (    -1          0          0      )       (  0.2500000 )
                  (     0         -1          0      )       (  0.2500000 )

 cart.    s(47) = (  0.0000000  0.0000000  1.0000000 )    f =( -0.3535534 )
                  (  1.0000000 -0.0000000  0.0000000 )       (  0.3535534 )
                  ( -0.0000000 -1.0000000 -0.0000000 )       (  0.3535534 )


      isym = 48     inv. 120 deg rotation - cart. axis [-1,-1,1] 

 cryst.   s(48) = (    -1          1          0      )    f =(  0.2500000 )
                  (     0          1         -1      )       (  0.2500000 )
                  (     0          1          0      )       (  0.2500000 )

 cart.    s(48) = ( -0.0000000 -0.0000000  1.0000000 )    f =( -0.3535534 )
                  ( -1.0000000  0.0000000  0.0000000 )       (  0.3535534 )
                  (  0.0000000  1.0000000 -0.0000000 )       (  0.3535534 )


   Cartesian axes

     site n.     atom                  positions (alat units)
         1        Si     tau(   1) = (   0.0000000   0.0000000   0.0000000  )
         2        Si     tau(   2) = (   0.3535534   0.3535534   0.3535534  )

   Crystallographic axes

     site n.     atom                  positions (cryst. coord.)
         1        Si     tau(   1) = (  0.0000000  0.0000000  0.0000000  )
         2        Si     tau(   2) = ( -0.2500000  0.7500000 -0.2500000  )

     number of k points=  3107  Marzari-Vanderbilt smearing, width (Ry)=  0.0200
                       cart. coord. in units 2pi/alat
        k(    1) = (   0.0000000   0.0000000   0.0000000), wk =   0.0000160
        k(    2) = (  -0.0141421   0.0141421  -0.0141421), wk =   0.0001280
        k(    3) = (  -0.0282843   0.0282843  -0.0282843), wk =   0.0001280
        k(    4) = (  -0.0424264   0.0424264  -0.0424264), wk =   0.0001280
        k(    5) = (  -0.0565685   0.0565685  -0.0565685), wk =   0.0001280
        k(    6) = (  -0.0707107   0.0707107  -0.0707107), wk =   0.0001280
        k(    7) = (  -0.0848528   0.0848528  -0.0848528), wk =   0.0001280
        k(    8) = (  -0.0989949   0.0989949  -0.0989949), wk =   0.0001280
        k(    9) = (  -0.1131371   0.1131371  -0.1131371), wk =   0.0001280
        k(   10) = (  -0.1272792   0.1272792  -0.1272792), wk =   0.0001280
        k(   11) = (  -0.1414214   0.1414214  -0.1414214), wk =   0.0001280
        k(   12) = (  -0.1555635   0.1555635  -0.1555635), wk =   0.0001280
        k(   13) = (  -0.1697056   0.1697056  -0.1697056), wk =   0.0001280
        k(   14) = (  -0.1838478   0.1838478  -0.1838478), wk =   0.0001280
        k(   15) = (  -0.1979899   0.1979899  -0.1979899), wk =   0.0001280
        k(   16) = (  -0.2121320   0.2121320  -0.2121320), wk =   0.0001280
        k(   17) = (  -0.2262742   0.2262742  -0.2262742), wk =   0.0001280
        k(   18) = (  -0.2404163   0.2404163  -0.2404163), wk =   0.0001280
        k(   19) = (  -0.2545584   0.2545584  -0.2545584), wk =   0.0001280
        k(   20) = (  -0.2687006   0.2687006  -0.2687006), wk =   0.0001280
        k(   21) = (  -0.2828427   0.2828427  -0.2828427), wk =   0.0001280
        k(   22) = (  -0.2969848   0.2969848  -0.2969848), wk =   0.0001280
        k(   23) = (  -0.3111270   0.3111270  -0.3111270), wk =   0.0001280
        k(   24) = (  -0.3252691   0.3252691  -0.3252691), wk =   0.0001280
        k(   25) = (  -0.3394113   0.3394113  -0.3394113), wk =   0.0001280
        k(   26) = (   0.3535534  -0.3535534   0.3535534), wk =   0.0000640
        k(   27) = (   0.0000000   0.0282843   0.0000000), wk =   0.0000960
        k(   28) = (  -0.0141421   0.0424264  -0.0141421), wk =   0.0003840
        k(   29) = (  -0.0282843   0.0565685  -0.0282843), wk =   0.0003840
        k(   30) = (  -0.0424264   0.0707107  -0.0424264), wk =   0.0003840
        k(   31) = (  -0.0565685   0.0848528  -0.0565685), wk =   0.0003840
        k(   32) = (  -0.0707107   0.0989949  -0.0707107), wk =   0.0003840
        k(   33) = (  -0.0848528   0.1131371  -0.0848528), wk =   0.0003840
        k(   34) = (  -0.0989949   0.1272792  -0.0989949), wk =   0.0003840
        k(   35) = (  -0.1131371   0.1414214  -0.1131371), wk =   0.0003840
        k(   36) = (  -0.1272792   0.1555635  -0.1272792), wk =   0.0003840
        k(   37) = (  -0.1414214   0.1697056  -0.1414214), wk =   0.0003840
        k(   38) = (  -0.1555635   0.1838478  -0.1555635), wk =   0.0003840
        k(   39) = (  -0.1697056   0.1979899  -0.1697056), wk =   0.0003840
        k(   40) = (  -0.1838478   0.2121320  -0.1838478), wk =   0.0003840
        k(   41) = (  -0.1979899   0.2262742  -0.1979899), wk =   0.0003840
        k(   42) = (  -0.2121320   0.2404163  -0.2121320), wk =   0.0003840
        k(   43) = (  -0.2262742   0.2545584  -0.2262742), wk =   0.0003840
        k(   44) = (  -0.2404163   0.2687006  -0.2404163), wk =   0.0003840
        k(   45) = (  -0.2545584   0.2828427  -0.2545584), wk =   0.0003840
        k(   46) = (  -0.2687006   0.2969848  -0.2687006), wk =   0.0003840
        k(   47) = (  -0.2828427   0.3111270  -0.2828427), wk =   0.0003840
        k(   48) = (  -0.2969848   0.3252691  -0.2969848), wk =   0.0003840
        k(   49) = (  -0.3111270   0.3394113  -0.3111270), wk =   0.0003840
        k(   50) = (  -0.3252691   0.3535534  -0.3252691), wk =   0.0003840
        k(   51) = (   0.3676955  -0.3394113   0.3676955), wk =   0.0003840
        k(   52) = (   0.3535534  -0.3252691   0.3535534), wk =   0.0003840
        k(   53) = (   0.3394113  -0.3111270   0.3394113), wk =   0.0003840
        k(   54) = (   0.3252691  -0.2969848   0.3252691), wk =   0.0003840
        k(   55) = (   0.3111270  -0.2828427   0.3111270), wk =   0.0003840
        k(   56) = (   0.2969848  -0.2687006   0.2969848), wk =   0.0003840
        k(   57) = (   0.2828427  -0.2545584   0.2828427), wk =   0.0003840
        k(   58) = (   0.2687006  -0.2404163   0.2687006), wk =   0.0003840
        k(   59) = (   0.2545584  -0.2262742   0.2545584), wk =   0.0003840
        k(   60) = (   0.2404163  -0.2121320   0.2404163), wk =   0.0003840
        k(   61) = (   0.2262742  -0.1979899   0.2262742), wk =   0.0003840
        k(   62) = (   0.2121320  -0.1838478   0.2121320), wk =   0.0003840
        k(   63) = (   0.1979899  -0.1697056   0.1979899), wk =   0.0003840
        k(   64) = (   0.1838478  -0.1555635   0.1838478), wk =   0.0003840
        k(   65) = (   0.1697056  -0.1414214   0.1697056), wk =   0.0003840
        k(   66) = (   0.1555635  -0.1272792   0.1555635), wk =   0.0003840
        k(   67) = (   0.1414214  -0.1131371   0.1414214), wk =   0.0003840
        k(   68) = (   0.1272792  -0.0989949   0.1272792), wk =   0.0003840
        k(   69) = (   0.1131371  -0.0848528   0.1131371), wk =   0.0003840
        k(   70) = (   0.0989949  -0.0707107   0.0989949), wk =   0.0003840
        k(   71) = (   0.0848528  -0.0565685   0.0848528), wk =   0.0003840
        k(   72) = (   0.0707107  -0.0424264   0.0707107), wk =   0.0003840
        k(   73) = (   0.0565685  -0.0282843   0.0565685), wk =   0.0003840
        k(   74) = (   0.0424264  -0.0141421   0.0424264), wk =   0.0003840
        k(   75) = (   0.0282843  -0.0000000   0.0282843), wk =   0.0001920
        k(   76) = (   0.0000000   0.0565685   0.0000000), wk =   0.0000960
        k(   77) = (  -0.0141421   0.0707107  -0.0141421), wk =   0.0003840
        k(   78) = (  -0.0282843   0.0848528  -0.0282843), wk =   0.0003840
        k(   79) = (  -0.0424264   0.0989949  -0.0424264), wk =   0.0003840
        k(   80) = (  -0.0565685   0.1131371  -0.0565685), wk =   0.0003840
        k(   81) = (  -0.0707107   0.1272792  -0.0707107), wk =   0.0003840
        k(   82) = (  -0.0848528   0.1414214  -0.0848528), wk =   0.0003840
        k(   83) = (  -0.0989949   0.1555635  -0.0989949), wk =   0.0003840
        k(   84) = (  -0.1131371   0.1697056  -0.1131371), wk =   0.0003840
        k(   85) = (  -0.1272792   0.1838478  -0.1272792), wk =   0.0003840
        k(   86) = (  -0.1414214   0.1979899  -0.1414214), wk =   0.0003840
        k(   87) = (  -0.1555635   0.2121320  -0.1555635), wk =   0.0003840
        k(   88) = (  -0.1697056   0.2262742  -0.1697056), wk =   0.0003840
        k(   89) = (  -0.1838478   0.2404163  -0.1838478), wk =   0.0003840
        k(   90) = (  -0.1979899   0.2545584  -0.1979899), wk =   0.0003840
        k(   91) = (  -0.2121320   0.2687006  -0.2121320), wk =   0.0003840
        k(   92) = (  -0.2262742   0.2828427  -0.2262742), wk =   0.0003840
        k(   93) = (  -0.2404163   0.2969848  -0.2404163), wk =   0.0003840
        k(   94) = (  -0.2545584   0.3111270  -0.2545584), wk =   0.0003840
        k(   95) = (  -0.2687006   0.3252691  -0.2687006), wk =   0.0003840
        k(   96) = (  -0.2828427   0.3394113  -0.2828427), wk =   0.0003840
        k(   97) = (  -0.2969848   0.3535534  -0.2969848), wk =   0.0003840
        k(   98) = (  -0.3111270   0.3676955  -0.3111270), wk =   0.0003840
        k(   99) = (   0.3818377  -0.3252691   0.3818377), wk =   0.0003840
        k(  100) = (   0.3676955  -0.3111270   0.3676955), wk =   0.0003840
        k(  101) = (   0.3535534  -0.2969848   0.3535534), wk =   0.0003840
        k(  102) = (   0.3394113  -0.2828427   0.3394113), wk =   0.0003840
        k(  103) = (   0.3252691  -0.2687006   0.3252691), wk =   0.0003840
        k(  104) = (   0.3111270  -0.2545584   0.3111270), wk =   0.0003840
        k(  105) = (   0.2969848  -0.2404163   0.2969848), wk =   0.0003840
        k(  106) = (   0.2828427  -0.2262742   0.2828427), wk =   0.0003840
        k(  107) = (   0.2687006  -0.2121320   0.2687006), wk =   0.0003840
        k(  108) = (   0.2545584  -0.1979899   0.2545584), wk =   0.0003840
        k(  109) = (   0.2404163  -0.1838478   0.2404163), wk =   0.0003840
        k(  110) = (   0.2262742  -0.1697056   0.2262742), wk =   0.0003840
        k(  111) = (   0.2121320  -0.1555635   0.2121320), wk =   0.0003840
        k(  112) = (   0.1979899  -0.1414214   0.1979899), wk =   0.0003840
        k(  113) = (   0.1838478  -0.1272792   0.1838478), wk =   0.0003840
        k(  114) = (   0.1697056  -0.1131371   0.1697056), wk =   0.0003840
        k(  115) = (   0.1555635  -0.0989949   0.1555635), wk =   0.0003840
        k(  116) = (   0.1414214  -0.0848528   0.1414214), wk =   0.0003840
        k(  117) = (   0.1272792  -0.0707107   0.1272792), wk =   0.0003840
        k(  118) = (   0.1131371  -0.0565685   0.1131371), wk =   0.0003840
        k(  119) = (   0.0989949  -0.0424264   0.0989949), wk =   0.0003840
        k(  120) = (   0.0848528  -0.0282843   0.0848528), wk =   0.0003840
        k(  121) = (   0.0707107  -0.0141421   0.0707107), wk =   0.0003840
        k(  122) = (   0.0565685  -0.0000000   0.0565685), wk =   0.0001920
        k(  123) = (   0.0000000   0.0848528   0.0000000), wk =   0.0000960
        k(  124) = (  -0.0141421   0.0989949  -0.0141421), wk =   0.0003840
        k(  125) = (  -0.0282843   0.1131371  -0.0282843), wk =   0.0003840
        k(  126) = (  -0.0424264   0.1272792  -0.0424264), wk =   0.0003840
        k(  127) = (  -0.0565685   0.1414214  -0.0565685), wk =   0.0003840
        k(  128) = (  -0.0707107   0.1555635  -0.0707107), wk =   0.0003840
        k(  129) = (  -0.0848528   0.1697056  -0.0848528), wk =   0.0003840
        k(  130) = (  -0.0989949   0.1838478  -0.0989949), wk =   0.0003840
        k(  131) = (  -0.1131371   0.1979899  -0.1131371), wk =   0.0003840
        k(  132) = (  -0.1272792   0.2121320  -0.1272792), wk =   0.0003840
        k(  133) = (  -0.1414214   0.2262742  -0.1414214), wk =   0.0003840
        k(  134) = (  -0.1555635   0.2404163  -0.1555635), wk =   0.0003840
        k(  135) = (  -0.1697056   0.2545584  -0.1697056), wk =   0.0003840
        k(  136) = (  -0.1838478   0.2687006  -0.1838478), wk =   0.0003840
        k(  137) = (  -0.1979899   0.2828427  -0.1979899), wk =   0.0003840
        k(  138) = (  -0.2121320   0.2969848  -0.2121320), wk =   0.0003840
        k(  139) = (  -0.2262742   0.3111270  -0.2262742), wk =   0.0003840
        k(  140) = (  -0.2404163   0.3252691  -0.2404163), wk =   0.0003840
        k(  141) = (  -0.2545584   0.3394113  -0.2545584), wk =   0.0003840
        k(  142) = (  -0.2687006   0.3535534  -0.2687006), wk =   0.0003840
        k(  143) = (  -0.2828427   0.3676955  -0.2828427), wk =   0.0003840
        k(  144) = (  -0.2969848   0.3818377  -0.2969848), wk =   0.0003840
        k(  145) = (   0.3959798  -0.3111270   0.3959798), wk =   0.0003840
        k(  146) = (   0.3818377  -0.2969848   0.3818377), wk =   0.0003840
        k(  147) = (   0.3676955  -0.2828427   0.3676955), wk =   0.0003840
        k(  148) = (   0.3535534  -0.2687006   0.3535534), wk =   0.0003840
        k(  149) = (   0.3394113  -0.2545584   0.3394113), wk =   0.0003840
        k(  150) = (   0.3252691  -0.2404163   0.3252691), wk =   0.0003840
        k(  151) = (   0.3111270  -0.2262742   0.3111270), wk =   0.0003840
        k(  152) = (   0.2969848  -0.2121320   0.2969848), wk =   0.0003840
        k(  153) = (   0.2828427  -0.1979899   0.2828427), wk =   0.0003840
        k(  154) = (   0.2687006  -0.1838478   0.2687006), wk =   0.0003840
        k(  155) = (   0.2545584  -0.1697056   0.2545584), wk =   0.0003840
        k(  156) = (   0.2404163  -0.1555635   0.2404163), wk =   0.0003840
        k(  157) = (   0.2262742  -0.1414214   0.2262742), wk =   0.0003840
        k(  158) = (   0.2121320  -0.1272792   0.2121320), wk =   0.0003840
        k(  159) = (   0.1979899  -0.1131371   0.1979899), wk =   0.0003840
        k(  160) = (   0.1838478  -0.0989949   0.1838478), wk =   0.0003840
        k(  161) = (   0.1697056  -0.0848528   0.1697056), wk =   0.0003840
        k(  162) = (   0.1555635  -0.0707107   0.1555635), wk =   0.0003840
        k(  163) = (   0.1414214  -0.0565685   0.1414214), wk =   0.0003840
        k(  164) = (   0.1272792  -0.0424264   0.1272792), wk =   0.0003840
        k(  165) = (   0.1131371  -0.0282843   0.1131371), wk =   0.0003840
        k(  166) = (   0.0989949  -0.0141421   0.0989949), wk =   0.0003840
        k(  167) = (   0.0848528  -0.0000000   0.0848528), wk =   0.0001920
        k(  168) = (   0.0000000   0.1131371   0.0000000), wk =   0.0000960
        k(  169) = (  -0.0141421   0.1272792  -0.0141421), wk =   0.0003840
        k(  170) = (  -0.0282843   0.1414214  -0.0282843), wk =   0.0003840
        k(  171) = (  -0.0424264   0.1555635  -0.0424264), wk =   0.0003840
        k(  172) = (  -0.0565685   0.1697056  -0.0565685), wk =   0.0003840
        k(  173) = (  -0.0707107   0.1838478  -0.0707107), wk =   0.0003840
        k(  174) = (  -0.0848528   0.1979899  -0.0848528), wk =   0.0003840
        k(  175) = (  -0.0989949   0.2121320  -0.0989949), wk =   0.0003840
        k(  176) = (  -0.1131371   0.2262742  -0.1131371), wk =   0.0003840
        k(  177) = (  -0.1272792   0.2404163  -0.1272792), wk =   0.0003840
        k(  178) = (  -0.1414214   0.2545584  -0.1414214), wk =   0.0003840
        k(  179) = (  -0.1555635   0.2687006  -0.1555635), wk =   0.0003840
        k(  180) = (  -0.1697056   0.2828427  -0.1697056), wk =   0.0003840
        k(  181) = (  -0.1838478   0.2969848  -0.1838478), wk =   0.0003840
        k(  182) = (  -0.1979899   0.3111270  -0.1979899), wk =   0.0003840
        k(  183) = (  -0.2121320   0.3252691  -0.2121320), wk =   0.0003840
        k(  184) = (  -0.2262742   0.3394113  -0.2262742), wk =   0.0003840
        k(  185) = (  -0.2404163   0.3535534  -0.2404163), wk =   0.0003840
        k(  186) = (  -0.2545584   0.3676955  -0.2545584), wk =   0.0003840
        k(  187) = (  -0.2687006   0.3818377  -0.2687006), wk =   0.0003840
        k(  188) = (  -0.2828427   0.3959798  -0.2828427), wk =   0.0003840
        k(  189) = (   0.4101219  -0.2969848   0.4101219), wk =   0.0003840
        k(  190) = (   0.3959798  -0.2828427   0.3959798), wk =   0.0003840
        k(  191) = (   0.3818377  -0.2687006   0.3818377), wk =   0.0003840
        k(  192) = (   0.3676955  -0.2545584   0.3676955), wk =   0.0003840
        k(  193) = (   0.3535534  -0.2404163   0.3535534), wk =   0.0003840
        k(  194) = (   0.3394113  -0.2262742   0.3394113), wk =   0.0003840
        k(  195) = (   0.3252691  -0.2121320   0.3252691), wk =   0.0003840
        k(  196) = (   0.3111270  -0.1979899   0.3111270), wk =   0.0003840
        k(  197) = (   0.2969848  -0.1838478   0.2969848), wk =   0.0003840
        k(  198) = (   0.2828427  -0.1697056   0.2828427), wk =   0.0003840
        k(  199) = (   0.2687006  -0.1555635   0.2687006), wk =   0.0003840
        k(  200) = (   0.2545584  -0.1414214   0.2545584), wk =   0.0003840
        k(  201) = (   0.2404163  -0.1272792   0.2404163), wk =   0.0003840
        k(  202) = (   0.2262742  -0.1131371   0.2262742), wk =   0.0003840
        k(  203) = (   0.2121320  -0.0989949   0.2121320), wk =   0.0003840
        k(  204) = (   0.1979899  -0.0848528   0.1979899), wk =   0.0003840
        k(  205) = (   0.1838478  -0.0707107   0.1838478), wk =   0.0003840
        k(  206) = (   0.1697056  -0.0565685   0.1697056), wk =   0.0003840
        k(  207) = (   0.1555635  -0.0424264   0.1555635), wk =   0.0003840
        k(  208) = (   0.1414214  -0.0282843   0.1414214), wk =   0.0003840
        k(  209) = (   0.1272792  -0.0141421   0.1272792), wk =   0.0003840
        k(  210) = (   0.1131371   0.0000000   0.1131371), wk =   0.0001920
        k(  211) = (   0.0000000   0.1414214   0.0000000), wk =   0.0000960
        k(  212) = (  -0.0141421   0.1555635  -0.0141421), wk =   0.0003840
        k(  213) = (  -0.0282843   0.1697056  -0.0282843), wk =   0.0003840
        k(  214) = (  -0.0424264   0.1838478  -0.0424264), wk =   0.0003840
        k(  215) = (  -0.0565685   0.1979899  -0.0565685), wk =   0.0003840
        k(  216) = (  -0.0707107   0.2121320  -0.0707107), wk =   0.0003840
        k(  217) = (  -0.0848528   0.2262742  -0.0848528), wk =   0.0003840
        k(  218) = (  -0.0989949   0.2404163  -0.0989949), wk =   0.0003840
        k(  219) = (  -0.1131371   0.2545584  -0.1131371), wk =   0.0003840
        k(  220) = (  -0.1272792   0.2687006  -0.1272792), wk =   0.0003840
        k(  221) = (  -0.1414214   0.2828427  -0.1414214), wk =   0.0003840
        k(  222) = (  -0.1555635   0.2969848  -0.1555635), wk =   0.0003840
        k(  223) = (  -0.1697056   0.3111270  -0.1697056), wk =   0.0003840
        k(  224) = (  -0.1838478   0.3252691  -0.1838478), wk =   0.0003840
        k(  225) = (  -0.1979899   0.3394113  -0.1979899), wk =   0.0003840
        k(  226) = (  -0.2121320   0.3535534  -0.2121320), wk =   0.0003840
        k(  227) = (  -0.2262742   0.3676955  -0.2262742), wk =   0.0003840
        k(  228) = (  -0.2404163   0.3818377  -0.2404163), wk =   0.0003840
        k(  229) = (  -0.2545584   0.3959798  -0.2545584), wk =   0.0003840
        k(  230) = (  -0.2687006   0.4101219  -0.2687006), wk =   0.0003840
        k(  231) = (   0.4242641  -0.2828427   0.4242641), wk =   0.0003840
        k(  232) = (   0.4101219  -0.2687006   0.4101219), wk =   0.0003840
        k(  233) = (   0.3959798  -0.2545584   0.3959798), wk =   0.0003840
        k(  234) = (   0.3818377  -0.2404163   0.3818377), wk =   0.0003840
        k(  235) = (   0.3676955  -0.2262742   0.3676955), wk =   0.0003840
        k(  236) = (   0.3535534  -0.2121320   0.3535534), wk =   0.0003840
        k(  237) = (   0.3394113  -0.1979899   0.3394113), wk =   0.0003840
        k(  238) = (   0.3252691  -0.1838478   0.3252691), wk =   0.0003840
        k(  239) = (   0.3111270  -0.1697056   0.3111270), wk =   0.0003840
        k(  240) = (   0.2969848  -0.1555635   0.2969848), wk =   0.0003840
        k(  241) = (   0.2828427  -0.1414214   0.2828427), wk =   0.0003840
        k(  242) = (   0.2687006  -0.1272792   0.2687006), wk =   0.0003840
        k(  243) = (   0.2545584  -0.1131371   0.2545584), wk =   0.0003840
        k(  244) = (   0.2404163  -0.0989949   0.2404163), wk =   0.0003840
        k(  245) = (   0.2262742  -0.0848528   0.2262742), wk =   0.0003840
        k(  246) = (   0.2121320  -0.0707107   0.2121320), wk =   0.0003840
        k(  247) = (   0.1979899  -0.0565685   0.1979899), wk =   0.0003840
        k(  248) = (   0.1838478  -0.0424264   0.1838478), wk =   0.0003840
        k(  249) = (   0.1697056  -0.0282843   0.1697056), wk =   0.0003840
        k(  250) = (   0.1555635  -0.0141421   0.1555635), wk =   0.0003840
        k(  251) = (   0.1414214   0.0000000   0.1414214), wk =   0.0001920
        k(  252) = (   0.0000000   0.1697056   0.0000000), wk =   0.0000960
        k(  253) = (  -0.0141421   0.1838478  -0.0141421), wk =   0.0003840
        k(  254) = (  -0.0282843   0.1979899  -0.0282843), wk =   0.0003840
        k(  255) = (  -0.0424264   0.2121320  -0.0424264), wk =   0.0003840
        k(  256) = (  -0.0565685   0.2262742  -0.0565685), wk =   0.0003840
        k(  257) = (  -0.0707107   0.2404163  -0.0707107), wk =   0.0003840
        k(  258) = (  -0.0848528   0.2545584  -0.0848528), wk =   0.0003840
        k(  259) = (  -0.0989949   0.2687006  -0.0989949), wk =   0.0003840
        k(  260) = (  -0.1131371   0.2828427  -0.1131371), wk =   0.0003840
        k(  261) = (  -0.1272792   0.2969848  -0.1272792), wk =   0.0003840
        k(  262) = (  -0.1414214   0.3111270  -0.1414214), wk =   0.0003840
        k(  263) = (  -0.1555635   0.3252691  -0.1555635), wk =   0.0003840
        k(  264) = (  -0.1697056   0.3394113  -0.1697056), wk =   0.0003840
        k(  265) = (  -0.1838478   0.3535534  -0.1838478), wk =   0.0003840
        k(  266) = (  -0.1979899   0.3676955  -0.1979899), wk =   0.0003840
        k(  267) = (  -0.2121320   0.3818377  -0.2121320), wk =   0.0003840
        k(  268) = (  -0.2262742   0.3959798  -0.2262742), wk =   0.0003840
        k(  269) = (  -0.2404163   0.4101219  -0.2404163), wk =   0.0003840
        k(  270) = (  -0.2545584   0.4242641  -0.2545584), wk =   0.0003840
        k(  271) = (   0.4384062  -0.2687006   0.4384062), wk =   0.0003840
        k(  272) = (   0.4242641  -0.2545584   0.4242641), wk =   0.0003840
        k(  273) = (   0.4101219  -0.2404163   0.4101219), wk =   0.0003840
        k(  274) = (   0.3959798  -0.2262742   0.3959798), wk =   0.0003840
        k(  275) = (   0.3818377  -0.2121320   0.3818377), wk =   0.0003840
        k(  276) = (   0.3676955  -0.1979899   0.3676955), wk =   0.0003840
        k(  277) = (   0.3535534  -0.1838478   0.3535534), wk =   0.0003840
        k(  278) = (   0.3394113  -0.1697056   0.3394113), wk =   0.0003840
        k(  279) = (   0.3252691  -0.1555635   0.3252691), wk =   0.0003840
        k(  280) = (   0.3111270  -0.1414214   0.3111270), wk =   0.0003840
        k(  281) = (   0.2969848  -0.1272792   0.2969848), wk =   0.0003840
        k(  282) = (   0.2828427  -0.1131371   0.2828427), wk =   0.0003840
        k(  283) = (   0.2687006  -0.0989949   0.2687006), wk =   0.0003840
        k(  284) = (   0.2545584  -0.0848528   0.2545584), wk =   0.0003840
        k(  285) = (   0.2404163  -0.0707107   0.2404163), wk =   0.0003840
        k(  286) = (   0.2262742  -0.0565685   0.2262742), wk =   0.0003840
        k(  287) = (   0.2121320  -0.0424264   0.2121320), wk =   0.0003840
        k(  288) = (   0.1979899  -0.0282843   0.1979899), wk =   0.0003840
        k(  289) = (   0.1838478  -0.0141421   0.1838478), wk =   0.0003840
        k(  290) = (   0.1697056   0.0000000   0.1697056), wk =   0.0001920
        k(  291) = (  -0.0000000   0.1979899  -0.0000000), wk =   0.0000960
        k(  292) = (  -0.0141421   0.2121320  -0.0141421), wk =   0.0003840
        k(  293) = (  -0.0282843   0.2262742  -0.0282843), wk =   0.0003840
        k(  294) = (  -0.0424264   0.2404163  -0.0424264), wk =   0.0003840
        k(  295) = (  -0.0565685   0.2545584  -0.0565685), wk =   0.0003840
        k(  296) = (  -0.0707107   0.2687006  -0.0707107), wk =   0.0003840
        k(  297) = (  -0.0848528   0.2828427  -0.0848528), wk =   0.0003840
        k(  298) = (  -0.0989949   0.2969848  -0.0989949), wk =   0.0003840
        k(  299) = (  -0.1131371   0.3111270  -0.1131371), wk =   0.0003840
        k(  300) = (  -0.1272792   0.3252691  -0.1272792), wk =   0.0003840
        k(  301) = (  -0.1414214   0.3394113  -0.1414214), wk =   0.0003840
        k(  302) = (  -0.1555635   0.3535534  -0.1555635), wk =   0.0003840
        k(  303) = (  -0.1697056   0.3676955  -0.1697056), wk =   0.0003840
        k(  304) = (  -0.1838478   0.3818377  -0.1838478), wk =   0.0003840
        k(  305) = (  -0.1979899   0.3959798  -0.1979899), wk =   0.0003840
        k(  306) = (  -0.2121320   0.4101219  -0.2121320), wk =   0.0003840
        k(  307) = (  -0.2262742   0.4242641  -0.2262742), wk =   0.0003840
        k(  308) = (  -0.2404163   0.4384062  -0.2404163), wk =   0.0003840
        k(  309) = (   0.4525483  -0.2545584   0.4525483), wk =   0.0003840
        k(  310) = (   0.4384062  -0.2404163   0.4384062), wk =   0.0003840
        k(  311) = (   0.4242641  -0.2262742   0.4242641), wk =   0.0003840
        k(  312) = (   0.4101219  -0.2121320   0.4101219), wk =   0.0003840
        k(  313) = (   0.3959798  -0.1979899   0.3959798), wk =   0.0003840
        k(  314) = (   0.3818377  -0.1838478   0.3818377), wk =   0.0003840
        k(  315) = (   0.3676955  -0.1697056   0.3676955), wk =   0.0003840
        k(  316) = (   0.3535534  -0.1555635   0.3535534), wk =   0.0003840
        k(  317) = (   0.3394113  -0.1414214   0.3394113), wk =   0.0003840
        k(  318) = (   0.3252691  -0.1272792   0.3252691), wk =   0.0003840
        k(  319) = (   0.3111270  -0.1131371   0.3111270), wk =   0.0003840
        k(  320) = (   0.2969848  -0.0989949   0.2969848), wk =   0.0003840
        k(  321) = (   0.2828427  -0.0848528   0.2828427), wk =   0.0003840
        k(  322) = (   0.2687006  -0.0707107   0.2687006), wk =   0.0003840
        k(  323) = (   0.2545584  -0.0565685   0.2545584), wk =   0.0003840
        k(  324) = (   0.2404163  -0.0424264   0.2404163), wk =   0.0003840
        k(  325) = (   0.2262742  -0.0282843   0.2262742), wk =   0.0003840
        k(  326) = (   0.2121320  -0.0141421   0.2121320), wk =   0.0003840
        k(  327) = (   0.1979899  -0.0000000   0.1979899), wk =   0.0001920
        k(  328) = (   0.0000000   0.2262742   0.0000000), wk =   0.0000960
        k(  329) = (  -0.0141421   0.2404163  -0.0141421), wk =   0.0003840
        k(  330) = (  -0.0282843   0.2545584  -0.0282843), wk =   0.0003840
        k(  331) = (  -0.0424264   0.2687006  -0.0424264), wk =   0.0003840
        k(  332) = (  -0.0565685   0.2828427  -0.0565685), wk =   0.0003840
        k(  333) = (  -0.0707107   0.2969848  -0.0707107), wk =   0.0003840
        k(  334) = (  -0.0848528   0.3111270  -0.0848528), wk =   0.0003840
        k(  335) = (  -0.0989949   0.3252691  -0.0989949), wk =   0.0003840
        k(  336) = (  -0.1131371   0.3394113  -0.1131371), wk =   0.0003840
        k(  337) = (  -0.1272792   0.3535534  -0.1272792), wk =   0.0003840
        k(  338) = (  -0.1414214   0.3676955  -0.1414214), wk =   0.0003840
        k(  339) = (  -0.1555635   0.3818377  -0.1555635), wk =   0.0003840
        k(  340) = (  -0.1697056   0.3959798  -0.1697056), wk =   0.0003840
        k(  341) = (  -0.1838478   0.4101219  -0.1838478), wk =   0.0003840
        k(  342) = (  -0.1979899   0.4242641  -0.1979899), wk =   0.0003840
        k(  343) = (  -0.2121320   0.4384062  -0.2121320), wk =   0.0003840
        k(  344) = (  -0.2262742   0.4525483  -0.2262742), wk =   0.0003840
        k(  345) = (   0.4666905  -0.2404163   0.4666905), wk =   0.0003840
        k(  346) = (   0.4525483  -0.2262742   0.4525483), wk =   0.0003840
        k(  347) = (   0.4384062  -0.2121320   0.4384062), wk =   0.0003840
        k(  348) = (   0.4242641  -0.1979899   0.4242641), wk =   0.0003840
        k(  349) = (   0.4101219  -0.1838478   0.4101219), wk =   0.0003840
        k(  350) = (   0.3959798  -0.1697056   0.3959798), wk =   0.0003840
        k(  351) = (   0.3818377  -0.1555635   0.3818377), wk =   0.0003840
        k(  352) = (   0.3676955  -0.1414214   0.3676955), wk =   0.0003840
        k(  353) = (   0.3535534  -0.1272792   0.3535534), wk =   0.0003840
        k(  354) = (   0.3394113  -0.1131371   0.3394113), wk =   0.0003840
        k(  355) = (   0.3252691  -0.0989949   0.3252691), wk =   0.0003840
        k(  356) = (   0.3111270  -0.0848528   0.3111270), wk =   0.0003840
        k(  357) = (   0.2969848  -0.0707107   0.2969848), wk =   0.0003840
        k(  358) = (   0.2828427  -0.0565685   0.2828427), wk =   0.0003840
        k(  359) = (   0.2687006  -0.0424264   0.2687006), wk =   0.0003840
        k(  360) = (   0.2545584  -0.0282843   0.2545584), wk =   0.0003840
        k(  361) = (   0.2404163  -0.0141421   0.2404163), wk =   0.0003840
        k(  362) = (   0.2262742  -0.0000000   0.2262742), wk =   0.0001920
        k(  363) = (  -0.0000000   0.2545584  -0.0000000), wk =   0.0000960
        k(  364) = (  -0.0141421   0.2687006  -0.0141421), wk =   0.0003840
        k(  365) = (  -0.0282843   0.2828427  -0.0282843), wk =   0.0003840
        k(  366) = (  -0.0424264   0.2969848  -0.0424264), wk =   0.0003840
        k(  367) = (  -0.0565685   0.3111270  -0.0565685), wk =   0.0003840
        k(  368) = (  -0.0707107   0.3252691  -0.0707107), wk =   0.0003840
        k(  369) = (  -0.0848528   0.3394113  -0.0848528), wk =   0.0003840
        k(  370) = (  -0.0989949   0.3535534  -0.0989949), wk =   0.0003840
        k(  371) = (  -0.1131371   0.3676955  -0.1131371), wk =   0.0003840
        k(  372) = (  -0.1272792   0.3818377  -0.1272792), wk =   0.0003840
        k(  373) = (  -0.1414214   0.3959798  -0.1414214), wk =   0.0003840
        k(  374) = (  -0.1555635   0.4101219  -0.1555635), wk =   0.0003840
        k(  375) = (  -0.1697056   0.4242641  -0.1697056), wk =   0.0003840
        k(  376) = (  -0.1838478   0.4384062  -0.1838478), wk =   0.0003840
        k(  377) = (  -0.1979899   0.4525483  -0.1979899), wk =   0.0003840
        k(  378) = (  -0.2121320   0.4666905  -0.2121320), wk =   0.0003840
        k(  379) = (   0.4808326  -0.2262742   0.4808326), wk =   0.0003840
        k(  380) = (   0.4666905  -0.2121320   0.4666905), wk =   0.0003840
        k(  381) = (   0.4525483  -0.1979899   0.4525483), wk =   0.0003840
        k(  382) = (   0.4384062  -0.1838478   0.4384062), wk =   0.0003840
        k(  383) = (   0.4242641  -0.1697056   0.4242641), wk =   0.0003840
        k(  384) = (   0.4101219  -0.1555635   0.4101219), wk =   0.0003840
        k(  385) = (   0.3959798  -0.1414214   0.3959798), wk =   0.0003840
        k(  386) = (   0.3818377  -0.1272792   0.3818377), wk =   0.0003840
        k(  387) = (   0.3676955  -0.1131371   0.3676955), wk =   0.0003840
        k(  388) = (   0.3535534  -0.0989949   0.3535534), wk =   0.0003840
        k(  389) = (   0.3394113  -0.0848528   0.3394113), wk =   0.0003840
        k(  390) = (   0.3252691  -0.0707107   0.3252691), wk =   0.0003840
        k(  391) = (   0.3111270  -0.0565685   0.3111270), wk =   0.0003840
        k(  392) = (   0.2969848  -0.0424264   0.2969848), wk =   0.0003840
        k(  393) = (   0.2828427  -0.0282843   0.2828427), wk =   0.0003840
        k(  394) = (   0.2687006  -0.0141421   0.2687006), wk =   0.0003840
        k(  395) = (   0.2545584  -0.0000000   0.2545584), wk =   0.0001920
        k(  396) = (   0.0000000   0.2828427   0.0000000), wk =   0.0000960
        k(  397) = (  -0.0141421   0.2969848  -0.0141421), wk =   0.0003840
        k(  398) = (  -0.0282843   0.3111270  -0.0282843), wk =   0.0003840
        k(  399) = (  -0.0424264   0.3252691  -0.0424264), wk =   0.0003840
        k(  400) = (  -0.0565685   0.3394113  -0.0565685), wk =   0.0003840
        k(  401) = (  -0.0707107   0.3535534  -0.0707107), wk =   0.0003840
        k(  402) = (  -0.0848528   0.3676955  -0.0848528), wk =   0.0003840
        k(  403) = (  -0.0989949   0.3818377  -0.0989949), wk =   0.0003840
        k(  404) = (  -0.1131371   0.3959798  -0.1131371), wk =   0.0003840
        k(  405) = (  -0.1272792   0.4101219  -0.1272792), wk =   0.0003840
        k(  406) = (  -0.1414214   0.4242641  -0.1414214), wk =   0.0003840
        k(  407) = (  -0.1555635   0.4384062  -0.1555635), wk =   0.0003840
        k(  408) = (  -0.1697056   0.4525483  -0.1697056), wk =   0.0003840
        k(  409) = (  -0.1838478   0.4666905  -0.1838478), wk =   0.0003840
        k(  410) = (  -0.1979899   0.4808326  -0.1979899), wk =   0.0003840
        k(  411) = (   0.4949747  -0.2121320   0.4949747), wk =   0.0003840
        k(  412) = (   0.4808326  -0.1979899   0.4808326), wk =   0.0003840
        k(  413) = (   0.4666905  -0.1838478   0.4666905), wk =   0.0003840
        k(  414) = (   0.4525483  -0.1697056   0.4525483), wk =   0.0003840
        k(  415) = (   0.4384062  -0.1555635   0.4384062), wk =   0.0003840
        k(  416) = (   0.4242641  -0.1414214   0.4242641), wk =   0.0003840
        k(  417) = (   0.4101219  -0.1272792   0.4101219), wk =   0.0003840
        k(  418) = (   0.3959798  -0.1131371   0.3959798), wk =   0.0003840
        k(  419) = (   0.3818377  -0.0989949   0.3818377), wk =   0.0003840
        k(  420) = (   0.3676955  -0.0848528   0.3676955), wk =   0.0003840
        k(  421) = (   0.3535534  -0.0707107   0.3535534), wk =   0.0003840
        k(  422) = (   0.3394113  -0.0565685   0.3394113), wk =   0.0003840
        k(  423) = (   0.3252691  -0.0424264   0.3252691), wk =   0.0003840
        k(  424) = (   0.3111270  -0.0282843   0.3111270), wk =   0.0003840
        k(  425) = (   0.2969848  -0.0141421   0.2969848), wk =   0.0003840
        k(  426) = (   0.2828427   0.0000000   0.2828427), wk =   0.0001920
        k(  427) = (  -0.0000000   0.3111270  -0.0000000), wk =   0.0000960
        k(  428) = (  -0.0141421   0.3252691  -0.0141421), wk =   0.0003840
        k(  429) = (  -0.0282843   0.3394113  -0.0282843), wk =   0.0003840
        k(  430) = (  -0.0424264   0.3535534  -0.0424264), wk =   0.0003840
        k(  431) = (  -0.0565685   0.3676955  -0.0565685), wk =   0.0003840
        k(  432) = (  -0.0707107   0.3818377  -0.0707107), wk =   0.0003840
        k(  433) = (  -0.0848528   0.3959798  -0.0848528), wk =   0.0003840
        k(  434) = (  -0.0989949   0.4101219  -0.0989949), wk =   0.0003840
        k(  435) = (  -0.1131371   0.4242641  -0.1131371), wk =   0.0003840
        k(  436) = (  -0.1272792   0.4384062  -0.1272792), wk =   0.0003840
        k(  437) = (  -0.1414214   0.4525483  -0.1414214), wk =   0.0003840
        k(  438) = (  -0.1555635   0.4666905  -0.1555635), wk =   0.0003840
        k(  439) = (  -0.1697056   0.4808326  -0.1697056), wk =   0.0003840
        k(  440) = (  -0.1838478   0.4949747  -0.1838478), wk =   0.0003840
        k(  441) = (   0.5091169  -0.1979899   0.5091169), wk =   0.0003840
        k(  442) = (   0.4949747  -0.1838478   0.4949747), wk =   0.0003840
        k(  443) = (   0.4808326  -0.1697056   0.4808326), wk =   0.0003840
        k(  444) = (   0.4666905  -0.1555635   0.4666905), wk =   0.0003840
        k(  445) = (   0.4525483  -0.1414214   0.4525483), wk =   0.0003840
        k(  446) = (   0.4384062  -0.1272792   0.4384062), wk =   0.0003840
        k(  447) = (   0.4242641  -0.1131371   0.4242641), wk =   0.0003840
        k(  448) = (   0.4101219  -0.0989949   0.4101219), wk =   0.0003840
        k(  449) = (   0.3959798  -0.0848528   0.3959798), wk =   0.0003840
        k(  450) = (   0.3818377  -0.0707107   0.3818377), wk =   0.0003840
        k(  451) = (   0.3676955  -0.0565685   0.3676955), wk =   0.0003840
        k(  452) = (   0.3535534  -0.0424264   0.3535534), wk =   0.0003840
        k(  453) = (   0.3394113  -0.0282843   0.3394113), wk =   0.0003840
        k(  454) = (   0.3252691  -0.0141421   0.3252691), wk =   0.0003840
        k(  455) = (   0.3111270   0.0000000   0.3111270), wk =   0.0001920
        k(  456) = (   0.0000000   0.3394113   0.0000000), wk =   0.0000960
        k(  457) = (  -0.0141421   0.3535534  -0.0141421), wk =   0.0003840
        k(  458) = (  -0.0282843   0.3676955  -0.0282843), wk =   0.0003840
        k(  459) = (  -0.0424264   0.3818377  -0.0424264), wk =   0.0003840
        k(  460) = (  -0.0565685   0.3959798  -0.0565685), wk =   0.0003840
        k(  461) = (  -0.0707107   0.4101219  -0.0707107), wk =   0.0003840
        k(  462) = (  -0.0848528   0.4242641  -0.0848528), wk =   0.0003840
        k(  463) = (  -0.0989949   0.4384062  -0.0989949), wk =   0.0003840
        k(  464) = (  -0.1131371   0.4525483  -0.1131371), wk =   0.0003840
        k(  465) = (  -0.1272792   0.4666905  -0.1272792), wk =   0.0003840
        k(  466) = (  -0.1414214   0.4808326  -0.1414214), wk =   0.0003840
        k(  467) = (  -0.1555635   0.4949747  -0.1555635), wk =   0.0003840
        k(  468) = (  -0.1697056   0.5091169  -0.1697056), wk =   0.0003840
        k(  469) = (   0.5232590  -0.1838478   0.5232590), wk =   0.0003840
        k(  470) = (   0.5091169  -0.1697056   0.5091169), wk =   0.0003840
        k(  471) = (   0.4949747  -0.1555635   0.4949747), wk =   0.0003840
        k(  472) = (   0.4808326  -0.1414214   0.4808326), wk =   0.0003840
        k(  473) = (   0.4666905  -0.1272792   0.4666905), wk =   0.0003840
        k(  474) = (   0.4525483  -0.1131371   0.4525483), wk =   0.0003840
        k(  475) = (   0.4384062  -0.0989949   0.4384062), wk =   0.0003840
        k(  476) = (   0.4242641  -0.0848528   0.4242641), wk =   0.0003840
        k(  477) = (   0.4101219  -0.0707107   0.4101219), wk =   0.0003840
        k(  478) = (   0.3959798  -0.0565685   0.3959798), wk =   0.0003840
        k(  479) = (   0.3818377  -0.0424264   0.3818377), wk =   0.0003840
        k(  480) = (   0.3676955  -0.0282843   0.3676955), wk =   0.0003840
        k(  481) = (   0.3535534  -0.0141421   0.3535534), wk =   0.0003840
        k(  482) = (   0.3394113   0.0000000   0.3394113), wk =   0.0001920
        k(  483) = (  -0.0000000   0.3676955  -0.0000000), wk =   0.0000960
        k(  484) = (  -0.0141421   0.3818377  -0.0141421), wk =   0.0003840
        k(  485) = (  -0.0282843   0.3959798  -0.0282843), wk =   0.0003840
        k(  486) = (  -0.0424264   0.4101219  -0.0424264), wk =   0.0003840
        k(  487) = (  -0.0565685   0.4242641  -0.0565685), wk =   0.0003840
        k(  488) = (  -0.0707107   0.4384062  -0.0707107), wk =   0.0003840
        k(  489) = (  -0.0848528   0.4525483  -0.0848528), wk =   0.0003840
        k(  490) = (  -0.0989949   0.4666905  -0.0989949), wk =   0.0003840
        k(  491) = (  -0.1131371   0.4808326  -0.1131371), wk =   0.0003840
        k(  492) = (  -0.1272792   0.4949747  -0.1272792), wk =   0.0003840
        k(  493) = (  -0.1414214   0.5091169  -0.1414214), wk =   0.0003840
        k(  494) = (  -0.1555635   0.5232590  -0.1555635), wk =   0.0003840
        k(  495) = (   0.5374012  -0.1697056   0.5374012), wk =   0.0003840
        k(  496) = (   0.5232590  -0.1555635   0.5232590), wk =   0.0003840
        k(  497) = (   0.5091169  -0.1414214   0.5091169), wk =   0.0003840
        k(  498) = (   0.4949747  -0.1272792   0.4949747), wk =   0.0003840
        k(  499) = (   0.4808326  -0.1131371   0.4808326), wk =   0.0003840
        k(  500) = (   0.4666905  -0.0989949   0.4666905), wk =   0.0003840
        k(  501) = (   0.4525483  -0.0848528   0.4525483), wk =   0.0003840
        k(  502) = (   0.4384062  -0.0707107   0.4384062), wk =   0.0003840
        k(  503) = (   0.4242641  -0.0565685   0.4242641), wk =   0.0003840
        k(  504) = (   0.4101219  -0.0424264   0.4101219), wk =   0.0003840
        k(  505) = (   0.3959798  -0.0282843   0.3959798), wk =   0.0003840
        k(  506) = (   0.3818377  -0.0141421   0.3818377), wk =   0.0003840
        k(  507) = (   0.3676955  -0.0000000   0.3676955), wk =   0.0001920
        k(  508) = (  -0.0000000   0.3959798  -0.0000000), wk =   0.0000960
        k(  509) = (  -0.0141421   0.4101219  -0.0141421), wk =   0.0003840
        k(  510) = (  -0.0282843   0.4242641  -0.0282843), wk =   0.0003840
        k(  511) = (  -0.0424264   0.4384062  -0.0424264), wk =   0.0003840
        k(  512) = (  -0.0565685   0.4525483  -0.0565685), wk =   0.0003840
        k(  513) = (  -0.0707107   0.4666905  -0.0707107), wk =   0.0003840
        k(  514) = (  -0.0848528   0.4808326  -0.0848528), wk =   0.0003840
        k(  515) = (  -0.0989949   0.4949747  -0.0989949), wk =   0.0003840
        k(  516) = (  -0.1131371   0.5091169  -0.1131371), wk =   0.0003840
        k(  517) = (  -0.1272792   0.5232590  -0.1272792), wk =   0.0003840
        k(  518) = (  -0.1414214   0.5374012  -0.1414214), wk =   0.0003840
        k(  519) = (   0.5515433  -0.1555635   0.5515433), wk =   0.0003840
        k(  520) = (   0.5374012  -0.1414214   0.5374012), wk =   0.0003840
        k(  521) = (   0.5232590  -0.1272792   0.5232590), wk =   0.0003840
        k(  522) = (   0.5091169  -0.1131371   0.5091169), wk =   0.0003840
        k(  523) = (   0.4949747  -0.0989949   0.4949747), wk =   0.0003840
        k(  524) = (   0.4808326  -0.0848528   0.4808326), wk =   0.0003840
        k(  525) = (   0.4666905  -0.0707107   0.4666905), wk =   0.0003840
        k(  526) = (   0.4525483  -0.0565685   0.4525483), wk =   0.0003840
        k(  527) = (   0.4384062  -0.0424264   0.4384062), wk =   0.0003840
        k(  528) = (   0.4242641  -0.0282843   0.4242641), wk =   0.0003840
        k(  529) = (   0.4101219  -0.0141421   0.4101219), wk =   0.0003840
        k(  530) = (   0.3959798  -0.0000000   0.3959798), wk =   0.0001920
        k(  531) = (  -0.0000000   0.4242641  -0.0000000), wk =   0.0000960
        k(  532) = (  -0.0141421   0.4384062  -0.0141421), wk =   0.0003840
        k(  533) = (  -0.0282843   0.4525483  -0.0282843), wk =   0.0003840
        k(  534) = (  -0.0424264   0.4666905  -0.0424264), wk =   0.0003840
        k(  535) = (  -0.0565685   0.4808326  -0.0565685), wk =   0.0003840
        k(  536) = (  -0.0707107   0.4949747  -0.0707107), wk =   0.0003840
        k(  537) = (  -0.0848528   0.5091169  -0.0848528), wk =   0.0003840
        k(  538) = (  -0.0989949   0.5232590  -0.0989949), wk =   0.0003840
        k(  539) = (  -0.1131371   0.5374012  -0.1131371), wk =   0.0003840
        k(  540) = (  -0.1272792   0.5515433  -0.1272792), wk =   0.0003840
        k(  541) = (   0.5656854  -0.1414214   0.5656854), wk =   0.0003840
        k(  542) = (   0.5515433  -0.1272792   0.5515433), wk =   0.0003840
        k(  543) = (   0.5374012  -0.1131371   0.5374012), wk =   0.0003840
        k(  544) = (   0.5232590  -0.0989949   0.5232590), wk =   0.0003840
        k(  545) = (   0.5091169  -0.0848528   0.5091169), wk =   0.0003840
        k(  546) = (   0.4949747  -0.0707107   0.4949747), wk =   0.0003840
        k(  547) = (   0.4808326  -0.0565685   0.4808326), wk =   0.0003840
        k(  548) = (   0.4666905  -0.0424264   0.4666905), wk =   0.0003840
        k(  549) = (   0.4525483  -0.0282843   0.4525483), wk =   0.0003840
        k(  550) = (   0.4384062  -0.0141421   0.4384062), wk =   0.0003840
        k(  551) = (   0.4242641  -0.0000000   0.4242641), wk =   0.0001920
        k(  552) = (   0.0000000   0.4525483   0.0000000), wk =   0.0000960
        k(  553) = (  -0.0141421   0.4666905  -0.0141421), wk =   0.0003840
        k(  554) = (  -0.0282843   0.4808326  -0.0282843), wk =   0.0003840
        k(  555) = (  -0.0424264   0.4949747  -0.0424264), wk =   0.0003840
        k(  556) = (  -0.0565685   0.5091169  -0.0565685), wk =   0.0003840
        k(  557) = (  -0.0707107   0.5232590  -0.0707107), wk =   0.0003840
        k(  558) = (  -0.0848528   0.5374012  -0.0848528), wk =   0.0003840
        k(  559) = (  -0.0989949   0.5515433  -0.0989949), wk =   0.0003840
        k(  560) = (  -0.1131371   0.5656854  -0.1131371), wk =   0.0003840
        k(  561) = (   0.5798276  -0.1272792   0.5798276), wk =   0.0003840
        k(  562) = (   0.5656854  -0.1131371   0.5656854), wk =   0.0003840
        k(  563) = (   0.5515433  -0.0989949   0.5515433), wk =   0.0003840
        k(  564) = (   0.5374012  -0.0848528   0.5374012), wk =   0.0003840
        k(  565) = (   0.5232590  -0.0707107   0.5232590), wk =   0.0003840
        k(  566) = (   0.5091169  -0.0565685   0.5091169), wk =   0.0003840
        k(  567) = (   0.4949747  -0.0424264   0.4949747), wk =   0.0003840
        k(  568) = (   0.4808326  -0.0282843   0.4808326), wk =   0.0003840
        k(  569) = (   0.4666905  -0.0141421   0.4666905), wk =   0.0003840
        k(  570) = (   0.4525483   0.0000000   0.4525483), wk =   0.0001920
        k(  571) = (   0.0000000   0.4808326   0.0000000), wk =   0.0000960
        k(  572) = (  -0.0141421   0.4949747  -0.0141421), wk =   0.0003840
        k(  573) = (  -0.0282843   0.5091169  -0.0282843), wk =   0.0003840
        k(  574) = (  -0.0424264   0.5232590  -0.0424264), wk =   0.0003840
        k(  575) = (  -0.0565685   0.5374012  -0.0565685), wk =   0.0003840
        k(  576) = (  -0.0707107   0.5515433  -0.0707107), wk =   0.0003840
        k(  577) = (  -0.0848528   0.5656854  -0.0848528), wk =   0.0003840
        k(  578) = (  -0.0989949   0.5798276  -0.0989949), wk =   0.0003840
        k(  579) = (   0.5939697  -0.1131371   0.5939697), wk =   0.0003840
        k(  580) = (   0.5798276  -0.0989949   0.5798276), wk =   0.0003840
        k(  581) = (   0.5656854  -0.0848528   0.5656854), wk =   0.0003840
        k(  582) = (   0.5515433  -0.0707107   0.5515433), wk =   0.0003840
        k(  583) = (   0.5374012  -0.0565685   0.5374012), wk =   0.0003840
        k(  584) = (   0.5232590  -0.0424264   0.5232590), wk =   0.0003840
        k(  585) = (   0.5091169  -0.0282843   0.5091169), wk =   0.0003840
        k(  586) = (   0.4949747  -0.0141421   0.4949747), wk =   0.0003840
        k(  587) = (   0.4808326   0.0000000   0.4808326), wk =   0.0001920
        k(  588) = (  -0.0000000   0.5091169  -0.0000000), wk =   0.0000960
        k(  589) = (  -0.0141421   0.5232590  -0.0141421), wk =   0.0003840
        k(  590) = (  -0.0282843   0.5374012  -0.0282843), wk =   0.0003840
        k(  591) = (  -0.0424264   0.5515433  -0.0424264), wk =   0.0003840
        k(  592) = (  -0.0565685   0.5656854  -0.0565685), wk =   0.0003840
        k(  593) = (  -0.0707107   0.5798276  -0.0707107), wk =   0.0003840
        k(  594) = (  -0.0848528   0.5939697  -0.0848528), wk =   0.0003840
        k(  595) = (   0.6081118  -0.0989949   0.6081118), wk =   0.0003840
        k(  596) = (   0.5939697  -0.0848528   0.5939697), wk =   0.0003840
        k(  597) = (   0.5798276  -0.0707107   0.5798276), wk =   0.0003840
        k(  598) = (   0.5656854  -0.0565685   0.5656854), wk =   0.0003840
        k(  599) = (   0.5515433  -0.0424264   0.5515433), wk =   0.0003840
        k(  600) = (   0.5374012  -0.0282843   0.5374012), wk =   0.0003840
        k(  601) = (   0.5232590  -0.0141421   0.5232590), wk =   0.0003840
        k(  602) = (   0.5091169  -0.0000000   0.5091169), wk =   0.0001920
        k(  603) = (   0.0000000   0.5374012   0.0000000), wk =   0.0000960
        k(  604) = (  -0.0141421   0.5515433  -0.0141421), wk =   0.0003840
        k(  605) = (  -0.0282843   0.5656854  -0.0282843), wk =   0.0003840
        k(  606) = (  -0.0424264   0.5798276  -0.0424264), wk =   0.0003840
        k(  607) = (  -0.0565685   0.5939697  -0.0565685), wk =   0.0003840
        k(  608) = (  -0.0707107   0.6081118  -0.0707107), wk =   0.0003840
        k(  609) = (   0.6222540  -0.0848528   0.6222540), wk =   0.0003840
        k(  610) = (   0.6081118  -0.0707107   0.6081118), wk =   0.0003840
        k(  611) = (   0.5939697  -0.0565685   0.5939697), wk =   0.0003840
        k(  612) = (   0.5798276  -0.0424264   0.5798276), wk =   0.0003840
        k(  613) = (   0.5656854  -0.0282843   0.5656854), wk =   0.0003840
        k(  614) = (   0.5515433  -0.0141421   0.5515433), wk =   0.0003840
        k(  615) = (   0.5374012   0.0000000   0.5374012), wk =   0.0001920
        k(  616) = (   0.0000000   0.5656854   0.0000000), wk =   0.0000960
        k(  617) = (  -0.0141421   0.5798276  -0.0141421), wk =   0.0003840
        k(  618) = (  -0.0282843   0.5939697  -0.0282843), wk =   0.0003840
        k(  619) = (  -0.0424264   0.6081118  -0.0424264), wk =   0.0003840
        k(  620) = (  -0.0565685   0.6222540  -0.0565685), wk =   0.0003840
        k(  621) = (   0.6363961  -0.0707107   0.6363961), wk =   0.0003840
        k(  622) = (   0.6222540  -0.0565685   0.6222540), wk =   0.0003840
        k(  623) = (   0.6081118  -0.0424264   0.6081118), wk =   0.0003840
        k(  624) = (   0.5939697  -0.0282843   0.5939697), wk =   0.0003840
        k(  625) = (   0.5798276  -0.0141421   0.5798276), wk =   0.0003840
        k(  626) = (   0.5656854   0.0000000   0.5656854), wk =   0.0001920
        k(  627) = (  -0.0000000   0.5939697  -0.0000000), wk =   0.0000960
        k(  628) = (  -0.0141421   0.6081118  -0.0141421), wk =   0.0003840
        k(  629) = (  -0.0282843   0.6222540  -0.0282843), wk =   0.0003840
        k(  630) = (  -0.0424264   0.6363961  -0.0424264), wk =   0.0003840
        k(  631) = (   0.6505382  -0.0565685   0.6505382), wk =   0.0003840
        k(  632) = (   0.6363961  -0.0424264   0.6363961), wk =   0.0003840
        k(  633) = (   0.6222540  -0.0282843   0.6222540), wk =   0.0003840
        k(  634) = (   0.6081118  -0.0141421   0.6081118), wk =   0.0003840
        k(  635) = (   0.5939697  -0.0000000   0.5939697), wk =   0.0001920
        k(  636) = (  -0.0000000   0.6222540  -0.0000000), wk =   0.0000960
        k(  637) = (  -0.0141421   0.6363961  -0.0141421), wk =   0.0003840
        k(  638) = (  -0.0282843   0.6505382  -0.0282843), wk =   0.0003840
        k(  639) = (   0.6646804  -0.0424264   0.6646804), wk =   0.0003840
        k(  640) = (   0.6505382  -0.0282843   0.6505382), wk =   0.0003840
        k(  641) = (   0.6363961  -0.0141421   0.6363961), wk =   0.0003840
        k(  642) = (   0.6222540   0.0000000   0.6222540), wk =   0.0001920
        k(  643) = (  -0.0000000   0.6505382  -0.0000000), wk =   0.0000960
        k(  644) = (  -0.0141421   0.6646804  -0.0141421), wk =   0.0003840
        k(  645) = (   0.6788225  -0.0282843   0.6788225), wk =   0.0003840
        k(  646) = (   0.6646804  -0.0141421   0.6646804), wk =   0.0003840
        k(  647) = (   0.6505382   0.0000000   0.6505382), wk =   0.0001920
        k(  648) = (   0.0000000   0.6788225   0.0000000), wk =   0.0000960
        k(  649) = (   0.6929646  -0.0141421   0.6929646), wk =   0.0003840
        k(  650) = (   0.6788225   0.0000000   0.6788225), wk =   0.0001920
        k(  651) = (   0.0000000  -0.7071068   0.0000000), wk =   0.0000480
        k(  652) = (  -0.0282843   0.0565685   0.0000000), wk =   0.0003840
        k(  653) = (  -0.0424264   0.0707107  -0.0141421), wk =   0.0007680
        k(  654) = (  -0.0565685   0.0848528  -0.0282843), wk =   0.0007680
        k(  655) = (  -0.0707107   0.0989949  -0.0424264), wk =   0.0007680
        k(  656) = (  -0.0848528   0.1131371  -0.0565685), wk =   0.0007680
        k(  657) = (  -0.0989949   0.1272792  -0.0707107), wk =   0.0007680
        k(  658) = (  -0.1131371   0.1414214  -0.0848528), wk =   0.0007680
        k(  659) = (  -0.1272792   0.1555635  -0.0989949), wk =   0.0007680
        k(  660) = (  -0.1414214   0.1697056  -0.1131371), wk =   0.0007680
        k(  661) = (  -0.1555635   0.1838478  -0.1272792), wk =   0.0007680
        k(  662) = (  -0.1697056   0.1979899  -0.1414214), wk =   0.0007680
        k(  663) = (  -0.1838478   0.2121320  -0.1555635), wk =   0.0007680
        k(  664) = (  -0.1979899   0.2262742  -0.1697056), wk =   0.0007680
        k(  665) = (  -0.2121320   0.2404163  -0.1838478), wk =   0.0007680
        k(  666) = (  -0.2262742   0.2545584  -0.1979899), wk =   0.0007680
        k(  667) = (  -0.2404163   0.2687006  -0.2121320), wk =   0.0007680
        k(  668) = (  -0.2545584   0.2828427  -0.2262742), wk =   0.0007680
        k(  669) = (  -0.2687006   0.2969848  -0.2404163), wk =   0.0007680
        k(  670) = (  -0.2828427   0.3111270  -0.2545584), wk =   0.0007680
        k(  671) = (  -0.2969848   0.3252691  -0.2687006), wk =   0.0007680
        k(  672) = (  -0.3111270   0.3394113  -0.2828427), wk =   0.0007680
        k(  673) = (  -0.3252691   0.3535534  -0.2969848), wk =   0.0007680
        k(  674) = (   0.3676955  -0.3394113   0.3959798), wk =   0.0007680
        k(  675) = (   0.3535534  -0.3252691   0.3818377), wk =   0.0003840
        k(  676) = (  -0.0282843   0.0848528  -0.0000000), wk =   0.0003840
        k(  677) = (  -0.0424264   0.0989949  -0.0141421), wk =   0.0007680
        k(  678) = (  -0.0565685   0.1131371  -0.0282843), wk =   0.0007680
        k(  679) = (  -0.0707107   0.1272792  -0.0424264), wk =   0.0007680
        k(  680) = (  -0.0848528   0.1414214  -0.0565685), wk =   0.0007680
        k(  681) = (  -0.0989949   0.1555635  -0.0707107), wk =   0.0007680
        k(  682) = (  -0.1131371   0.1697056  -0.0848528), wk =   0.0007680
        k(  683) = (  -0.1272792   0.1838478  -0.0989949), wk =   0.0007680
        k(  684) = (  -0.1414214   0.1979899  -0.1131371), wk =   0.0007680
        k(  685) = (  -0.1555635   0.2121320  -0.1272792), wk =   0.0007680
        k(  686) = (  -0.1697056   0.2262742  -0.1414214), wk =   0.0007680
        k(  687) = (  -0.1838478   0.2404163  -0.1555635), wk =   0.0007680
        k(  688) = (  -0.1979899   0.2545584  -0.1697056), wk =   0.0007680
        k(  689) = (  -0.2121320   0.2687006  -0.1838478), wk =   0.0007680
        k(  690) = (  -0.2262742   0.2828427  -0.1979899), wk =   0.0007680
        k(  691) = (  -0.2404163   0.2969848  -0.2121320), wk =   0.0007680
        k(  692) = (  -0.2545584   0.3111270  -0.2262742), wk =   0.0007680
        k(  693) = (  -0.2687006   0.3252691  -0.2404163), wk =   0.0007680
        k(  694) = (  -0.2828427   0.3394113  -0.2545584), wk =   0.0007680
        k(  695) = (  -0.2969848   0.3535534  -0.2687006), wk =   0.0007680
        k(  696) = (  -0.3111270   0.3676955  -0.2828427), wk =   0.0007680
        k(  697) = (   0.3818377  -0.3252691   0.4101219), wk =   0.0007680
        k(  698) = (   0.3676955  -0.3111270   0.3959798), wk =   0.0007680
        k(  699) = (   0.3535534  -0.2969848   0.3818377), wk =   0.0007680
        k(  700) = (   0.3394113  -0.2828427   0.3676955), wk =   0.0007680
        k(  701) = (   0.3252691  -0.2687006   0.3535534), wk =   0.0007680
        k(  702) = (   0.3111270  -0.2545584   0.3394113), wk =   0.0007680
        k(  703) = (   0.2969848  -0.2404163   0.3252691), wk =   0.0007680
[...]

          k = 0.4243-0.0283 0.6788 (   732 PWs)   bands (ev):

    -1.6000  -1.0639   2.3651   2.7675   9.5353  10.1653  12.0489  12.7456
    16.5134  17.4497  19.1603  20.1351

     occupation numbers 
     1.0000   1.0000   1.0000   1.0000   0.0000   0.0000   0.0000   0.0000
     0.0000   0.0000   0.0000   0.0000

          k = 0.4101-0.0141 0.6647 (   732 PWs)   bands (ev):

    -1.5734  -1.0816   2.2833   2.8044   9.5963  10.5281  11.9881  12.3374
    16.4683  17.3536  19.2421  20.2207

     occupation numbers 
     1.0000   1.0000   1.0000   1.0000   0.0000   0.0000   0.0000   0.0000
     0.0000   0.0000   0.0000   0.0000

          k = 0.3960-0.0000 0.6505 (   729 PWs)   bands (ev):

    -1.6393  -1.0123   2.2138   2.8666   9.6636  10.8653  11.9272  11.9903
    16.2972  17.2906  19.2980  20.3998

     occupation numbers 
     1.0000   1.0000   1.0000   1.0000   0.0000   0.0000   0.0000   0.0000
     0.0000   0.0000   0.0000   0.0000

          k = 0.4525-0.0283 0.7071 (   733 PWs)   bands (ev):

    -1.5941  -1.0961   2.5442   2.7117   9.3795   9.4685  12.5365  13.2464
    16.6854  17.4286  19.1973  19.8937

     occupation numbers 
     1.0000   1.0000   1.0000   1.0000   0.0000   0.0000   0.0000   0.0000
     0.0000   0.0000   0.0000   0.0000

          k = 0.4384-0.0141 0.6930 (   729 PWs)   bands (ev):

    -1.4733  -1.2008   2.4802   2.6847   9.4714   9.7864  12.4581  12.8120
    16.8238  17.2926  19.3264  19.8084

     occupation numbers 
     1.0000   1.0000   1.0000   1.0000   0.0000   0.0000   0.0000   0.0000
     0.0000   0.0000   0.0000   0.0000

          k = 0.4243-0.0000 0.6788 (   732 PWs)   bands (ev):

    -1.4680  -1.1936   2.3763   2.7313   9.5306  10.1567  12.3539  12.4264
    16.7333  17.2813  19.3209  19.9433

     occupation numbers 
     1.0000   1.0000   1.0000   1.0000   0.0000   0.0000   0.0000   0.0000
     0.0000   0.0000   0.0000   0.0000

          k =-0.2546-0.7071-0.0000 (   732 PWs)   bands (ev):

    -1.3449  -1.3449   2.6163   2.6163   9.4164   9.4164  12.8856  12.8856
    17.0846  17.0846  19.5274  19.5274

     occupation numbers 
     1.0000   1.0000   1.0000   1.0000   0.0000   0.0000   0.0000   0.0000
     0.0000   0.0000   0.0000   0.0000

          k = 0.4243-0.1414 0.7071 (   737 PWs)   bands (ev):

    -2.4881  -0.2069   2.3372   3.3418   9.8051  10.1612  10.8875  14.2602
    14.9494  16.7073  19.8311  20.9876

     occupation numbers 
     1.0000   1.0000   1.0000   1.0000   0.0000   0.0000   0.0000   0.0000
     0.0000   0.0000   0.0000   0.0000

          k = 0.4101-0.1273 0.6930 (   737 PWs)   bands (ev):

    -2.3383  -0.3535   2.2757   3.2531   9.9504  10.2839  10.8956  13.8089
    15.1342  16.8829  19.6581  20.9736

     occupation numbers 
     1.0000   1.0000   1.0000   1.0000   0.0000   0.0000   0.0000   0.0000
     0.0000   0.0000   0.0000   0.0000

          k = 0.3960-0.1131 0.6788 (   734 PWs)   bands (ev):

    -2.1987  -0.4917   2.2302   3.1812  10.0100  10.3955  11.0293  13.3668
    15.2626  17.1079  19.4075  20.9667

     occupation numbers 
     1.0000   1.0000   1.0000   1.0000   0.0000   0.0000   0.0000   0.0000
     0.0000   0.0000   0.0000   0.0000

          k = 0.3818-0.0990 0.6647 (   733 PWs)   bands (ev):

    -2.0796  -0.6106   2.1992   3.1283  10.0406  10.4266  11.2960  12.9400
    15.3427  17.3583  19.1317  20.9658

     occupation numbers 
     1.0000   1.0000   1.0000   1.0000   0.0000   0.0000   0.0000   0.0000
     0.0000   0.0000   0.0000   0.0000

          k = 0.3677-0.0849 0.6505 (   732 PWs)   bands (ev):

    -1.9961  -0.6943   2.1812   3.0959  10.0586  10.4233  11.6176  12.5446
    15.3855  17.5846  18.8892  20.9662

     occupation numbers 
     1.0000   1.0000   1.0000   1.0000   0.0000   0.0000   0.0000   0.0000
     0.0000   0.0000   0.0000   0.0000

          k = 0.3536-0.0707 0.6364 (   730 PWs)   bands (ev):

    -1.9655  -0.7251   2.1754   3.0849  10.0650  10.4192  11.8339  12.3064
    15.3989  17.6874  18.7810  20.9664

     occupation numbers 
     1.0000   1.0000   1.0000   1.0000   0.0000   0.0000   0.0000   0.0000
     0.0000   0.0000   0.0000   0.0000

          k = 0.4243-0.1131 0.7071 (   737 PWs)   bands (ev):

    -2.2610  -0.4231   2.3339   3.1360   9.7848  10.0889  11.1313  13.8680
    15.3914  17.1205  19.4695  20.8784

     occupation numbers 
     1.0000   1.0000   1.0000   1.0000   0.0000   0.0000   0.0000   0.0000
     0.0000   0.0000   0.0000   0.0000

          k = 0.4101-0.0990 0.6930 (   736 PWs)   bands (ev):

    -2.1158  -0.5601   2.2848   3.0524   9.9249  10.2835  11.0912  13.4202
    15.5781  17.2715  19.3156  20.8354

     occupation numbers 
     1.0000   1.0000   1.0000   1.0000   0.0000   0.0000   0.0000   0.0000
     0.0000   0.0000   0.0000   0.0000

          k = 0.3960-0.0849 0.6788 (   737 PWs)   bands (ev):

    -1.9863  -0.6835   2.2459   2.9921   9.9868  10.5099  11.1247  12.9852
    15.7019  17.4500  19.1167  20.8209

     occupation numbers 
     1.0000   1.0000   1.0000   1.0000   0.0000   0.0000   0.0000   0.0000
     0.0000   0.0000   0.0000   0.0000

          k = 0.3818-0.0707 0.6647 (   733 PWs)   bands (ev):

    -1.8874  -0.7784   2.2158   2.9572  10.0340  10.6250  11.3039  12.5709
    15.7702  17.6045  18.9440  20.8235

     occupation numbers 
     1.0000   1.0000   1.0000   1.0000   0.0000   0.0000   0.0000   0.0000
     0.0000   0.0000   0.0000   0.0000

          k = 0.3677-0.0566 0.6505 (   733 PWs)   bands (ev):

    -1.8395  -0.8240   2.1945   2.9485  10.0798  10.6348  11.5752  12.2113
    15.7915  17.6488  18.8913  20.8329

     occupation numbers 
     1.0000   1.0000   1.0000   1.0000   0.0000   0.0000   0.0000   0.0000
     0.0000   0.0000   0.0000   0.0000

          k = 0.3536-0.0424 0.6364 (   733 PWs)   bands (ev):

    -1.8575  -0.8057   2.1829   2.9657  10.1263  10.6028  11.6096  12.1700
    15.7698  17.5420  19.0014  20.8458

     occupation numbers 
     1.0000   1.0000   1.0000   1.0000   0.0000   0.0000   0.0000   0.0000
     0.0000   0.0000   0.0000   0.0000

          k = 0.3394-0.0283 0.6223 (   731 PWs)   bands (ev):

    -1.9351  -0.7303   2.1829   3.0071  10.1721  10.5447  11.3281  12.5114
    15.7010  17.3515  19.2056  20.8651

     occupation numbers 
     1.0000   1.0000   1.0000   1.0000   0.0000   0.0000   0.0000   0.0000
     0.0000   0.0000   0.0000   0.0000

          k = 0.3253-0.0141 0.6081 (   732 PWs)   bands (ev):

    -2.0517  -0.6187   2.1969   3.0704  10.2147  10.4350  11.0702  12.9241
    15.5757  17.1546  19.4203  20.8997

     occupation numbers 
     1.0000   1.0000   1.0000   1.0000   0.0000   0.0000   0.0000   0.0000
     0.0000   0.0000   0.0000   0.0000

          k = 0.3111-0.0000 0.5940 (   734 PWs)   bands (ev):

    -2.1898  -0.4892   2.2272   3.1533  10.2258  10.2565  10.9295  13.3598
    15.3861  16.9937  19.5850  20.9560

     occupation numbers 
     1.0000   1.0000   1.0000   1.0000   0.0000   0.0000   0.0000   0.0000
     0.0000   0.0000   0.0000   0.0000

          k = 0.4243-0.0849 0.7071 (   735 PWs)   bands (ev):

    -2.0301  -0.6437   2.3519   2.9518   9.7774  10.0110  11.4132  13.4811
    15.8330  17.4459  19.1740  20.6304

     occupation numbers 
     1.0000   1.0000   1.0000   1.0000   0.0000   0.0000   0.0000   0.0000
     0.0000   0.0000   0.0000   0.0000

          k = 0.4101-0.0707 0.6930 (   732 PWs)   bands (ev):

    -1.8917  -0.7706   2.3149   2.8756   9.9072  10.2526  11.3543  13.0401
    16.0173  17.5244  19.0940  20.5402

     occupation numbers 
     1.0000   1.0000   1.0000   1.0000   0.0000   0.0000   0.0000   0.0000
     0.0000   0.0000   0.0000   0.0000

          k = 0.3960-0.0566 0.6788 (   733 PWs)   bands (ev):

    -1.7779  -0.8756   2.2784   2.8329   9.9673  10.5522  11.3321  12.6153
    16.1278  17.5841  19.0201  20.5038

     occupation numbers 
     1.0000   1.0000   1.0000   1.0000   0.0000   0.0000   0.0000   0.0000
     0.0000   0.0000   0.0000   0.0000

          k = 0.3818-0.0424 0.6647 (   733 PWs)   bands (ev):

    -1.7126  -0.9354   2.2427   2.8251  10.0215  10.7791  11.4005  12.2194
    16.1659  17.5739  19.0193  20.5083

     occupation numbers 
     1.0000   1.0000   1.0000   1.0000   0.0000   0.0000   0.0000   0.0000
     0.0000   0.0000   0.0000   0.0000

          k = 0.3677-0.0283 0.6505 (   732 PWs)   bands (ev):

    -1.7202  -0.9260   2.2117   2.8493  10.0785  10.8513  11.5463  11.9391
    16.1329  17.4816  19.1102  20.5466

     occupation numbers 
     1.0000   1.0000   1.0000   1.0000   0.0000   0.0000   0.0000   0.0000
     0.0000   0.0000   0.0000   0.0000

          k = 0.3536-0.0141 0.6364 (   733 PWs)   bands (ev):

    -1.7962  -0.8527   2.1906   2.9011  10.1383  10.8043  11.3890  12.1191
    16.0240  17.3520  19.2456  20.6231

     occupation numbers 
     1.0000   1.0000   1.0000   1.0000   0.0000   0.0000   0.0000   0.0000
     0.0000   0.0000   0.0000   0.0000

          k = 0.3394-0.0000 0.6223 (   733 PWs)   bands (ev):

    -1.9138  -0.7429   2.1845   2.9761  10.1963  10.6528  11.1770  12.5009
    15.8356  17.2356  19.3626  20.7460

     occupation numbers 
     1.0000   1.0000   1.0000   1.0000   0.0000   0.0000   0.0000   0.0000
     0.0000   0.0000   0.0000   0.0000

          k = 0.4243-0.0566 0.7071 (   730 PWs)   bands (ev):

    -1.7968  -0.8685   2.3921   2.7910   9.7831   9.9404  11.7188  13.1035
    16.2688  17.5679  19.0711  20.2989

     occupation numbers 
     1.0000   1.0000   1.0000   1.0000   0.0000   0.0000   0.0000   0.0000
     0.0000   0.0000   0.0000   0.0000

          k = 0.4101-0.0424 0.6930 (   735 PWs)   bands (ev):

    -1.6687  -0.9836   2.3640   2.7270   9.8965  10.2226  11.6528  12.6713
    16.4430  17.5196  19.1191  20.1846

     occupation numbers 
     1.0000   1.0000   1.0000   1.0000   0.0000   0.0000   0.0000   0.0000
     0.0000   0.0000   0.0000   0.0000

          k = 0.3960-0.0283 0.6788 (   732 PWs)   bands (ev):

    -1.5851  -1.0580   2.3185   2.7157   9.9549  10.5599  11.6079  12.2600
    16.5135  17.4589  19.1684  20.1616

     occupation numbers 
     1.0000   1.0000   1.0000   1.0000   0.0000   0.0000   0.0000   0.0000
     0.0000   0.0000   0.0000   0.0000

          k = 0.3818-0.0141 0.6647 (   730 PWs)   bands (ev):

    -1.5880  -1.0507   2.2656   2.7489  10.0140  10.8484  11.6079  11.8935
    16.4612  17.4017  19.2178  20.2333

     occupation numbers 
     1.0000   1.0000   1.0000   1.0000   0.0000   0.0000   0.0000   0.0000
     0.0000   0.0000   0.0000   0.0000

          k = 0.3677-0.0000 0.6505 (   731 PWs)   bands (ev):

    -1.6726  -0.9677   2.2199   2.8135  10.0767  10.9579  11.5326  11.8195
    16.2885  17.3660  19.2488  20.3946

     occupation numbers 
     1.0000   1.0000   1.0000   1.0000   0.0000   0.0000   0.0000   0.0000
     0.0000   0.0000   0.0000   0.0000

          k = 0.4243-0.0283 0.7071 (   732 PWs)   bands (ev):

    -1.5626  -1.0973   2.4554   2.6545   9.8023   9.8812  12.0430  12.7370
    16.6918  17.4126  19.2352  19.9289

     occupation numbers 
     1.0000   1.0000   1.0000   1.0000   0.0000   0.0000   0.0000   0.0000
     0.0000   0.0000   0.0000   0.0000

          k = 0.4101-0.0141 0.6930 (   733 PWs)   bands (ev):

    -1.4572  -1.1899   2.4195   2.6214   9.8916  10.2054  11.9745  12.3162
    16.8241  17.2981  19.3452  19.8385

     occupation numbers 
     1.0000   1.0000   1.0000   1.0000   0.0000   0.0000   0.0000   0.0000
     0.0000   0.0000   0.0000   0.0000

          k = 0.3960-0.0000 0.6788 (   731 PWs)   bands (ev):

    -1.4763  -1.1632   2.3399   2.6684   9.9507  10.5601  11.9029  11.9410
    16.7236  17.3145  19.3163  19.9679

     occupation numbers 
     1.0000   1.0000   1.0000   1.0000   0.0000   0.0000   0.0000   0.0000
     0.0000   0.0000   0.0000   0.0000

          k =-0.2828-0.7071 0.0000 (   734 PWs)   bands (ev):

    -1.3290  -1.3290   2.5427   2.5427   9.8350   9.8350  12.3829  12.3829
    17.0867  17.0867  19.5569  19.5569

     occupation numbers 
     1.0000   1.0000   1.0000   1.0000   0.0000   0.0000   0.0000   0.0000
     0.0000   0.0000   0.0000   0.0000

          k = 0.3960-0.0849 0.7071 (   736 PWs)   bands (ev):

    -1.9715  -0.6899   2.2570   2.9527  10.2158  10.3129  11.0701  12.9777
    15.8338  17.3425  19.2712  20.6901

     occupation numbers 
     1.0000   1.0000   1.0000   1.0000   0.0000   0.0000   0.0000   0.0000
     0.0000   0.0000   0.0000   0.0000

          k = 0.3818-0.0707 0.6930 (   734 PWs)   bands (ev):

    -1.8425  -0.8087   2.2412   2.8765  10.2879  10.5040  11.1296  12.5527
    16.0203  17.4402  19.1723  20.5861

     occupation numbers 
     1.0000   1.0000   1.0000   1.0000   0.0000   0.0000   0.0000   0.0000
     0.0000   0.0000   0.0000   0.0000

          k = 0.3677-0.0566 0.6788 (   734 PWs)   bands (ev):

    -1.7459  -0.8993   2.2339   2.8283  10.2992  10.6300  11.3215  12.1622
    16.1303  17.5359  19.0660  20.5312

     occupation numbers 
     1.0000   1.0000   1.0000   1.0000   0.0000   0.0000   0.0000   0.0000
     0.0000   0.0000   0.0000   0.0000

          k = 0.3536-0.0424 0.6647 (   734 PWs)   bands (ev):

    -1.7083  -0.9349   2.2319   2.8117  10.3027  10.6599  11.5015  11.9282
    16.1661  17.5780  19.0188  20.5149

     occupation numbers 
     1.0000   1.0000   1.0000   1.0000   0.0000   0.0000   0.0000   0.0000
     0.0000   0.0000   0.0000   0.0000

          k = 0.3960-0.0566 0.7071 (   735 PWs)   bands (ev):

    -1.7524  -0.8950   2.3106   2.7747  10.2172  10.3072  11.3052  12.6069
    16.2744  17.5053  19.1357  20.3405

     occupation numbers 
     1.0000   1.0000   1.0000   1.0000   0.0000   0.0000   0.0000   0.0000
     0.0000   0.0000   0.0000   0.0000

          k = 0.3818-0.0424 0.6930 (   734 PWs)   bands (ev):

    -1.6366  -1.0007   2.3071   2.7090  10.2996  10.5642  11.3000  12.1970
    16.4487  17.4852  19.1569  20.2134

     occupation numbers 
     1.0000   1.0000   1.0000   1.0000   0.0000   0.0000   0.0000   0.0000
     0.0000   0.0000   0.0000   0.0000

          k = 0.3677-0.0283 0.6788 (   733 PWs)   bands (ev):

    -1.5773  -1.0549   2.2951   2.6891  10.3384  10.7580  11.3852  11.8451
    16.5137  17.4636  19.1726  20.1755

     occupation numbers 
     1.0000   1.0000   1.0000   1.0000   0.0000   0.0000   0.0000   0.0000
     0.0000   0.0000   0.0000   0.0000

          k = 0.3536-0.0141 0.6647 (   732 PWs)   bands (ev):

    -1.6093  -1.0233   2.2738   2.7165  10.3744  10.7775  11.3667  11.8157
    16.4547  17.4458  19.1897  20.2304

     occupation numbers 
     1.0000   1.0000   1.0000   1.0000   0.0000   0.0000   0.0000   0.0000
     0.0000   0.0000   0.0000   0.0000

          k = 0.3394 0.0000 0.6505 (   735 PWs)   bands (ev):

    -1.7106  -0.9283   2.2525   2.7824  10.3970  10.6402  11.1986  12.1476
    16.2809  17.4379  19.1949  20.3737

     occupation numbers 
     1.0000   1.0000   1.0000   1.0000   0.0000   0.0000   0.0000   0.0000
     0.0000   0.0000   0.0000   0.0000

          k = 0.3960-0.0283 0.7071 (   734 PWs)   bands (ev):

    -1.5340  -1.1044   2.3887   2.6208  10.2296  10.2801  11.5924  12.2502
    16.6990  17.3934  19.2664  19.9564

     occupation numbers 
     1.0000   1.0000   1.0000   1.0000   0.0000   0.0000   0.0000   0.0000
     0.0000   0.0000   0.0000   0.0000

          k = 0.3818-0.0141 0.6930 (   732 PWs)   bands (ev):

    -1.4469  -1.1830   2.3824   2.5821  10.3002  10.5854  11.5564  11.8619
    16.8244  17.3016  19.3574  19.8577

     occupation numbers 
     1.0000   1.0000   1.0000   1.0000   0.0000   0.0000   0.0000   0.0000
     0.0000   0.0000   0.0000   0.0000

          k = 0.3677-0.0000 0.6788 (   729 PWs)   bands (ev):

    -1.4901  -1.1376   2.3299   2.6280  10.3454  10.8143  11.5107  11.6276
    16.7149  17.3445  19.3066  19.9779

     occupation numbers 
     1.0000   1.0000   1.0000   1.0000   0.0000   0.0000   0.0000   0.0000
     0.0000   0.0000   0.0000   0.0000

          k =-0.3111-0.7071 0.0000 (   734 PWs)   bands (ev):

    -1.3176  -1.3176   2.4920   2.4920  10.2516  10.2516  11.9105  11.9105
    17.0884  17.0884  19.5783  19.5783

     occupation numbers 
     1.0000   1.0000   1.0000   1.0000   0.0000   0.0000   0.0000   0.0000
     0.0000   0.0000   0.0000   0.0000

          k = 0.3677-0.0283 0.7071 (   735 PWs)   bands (ev):

    -1.5095  -1.1178   2.3464   2.6119  10.5345  10.6273  11.3152  11.8201
    16.7067  17.3707  19.2903  19.9736

     occupation numbers 
     1.0000   1.0000   1.0000   1.0000   0.0000   0.0000   0.0000   0.0000
     0.0000   0.0000   0.0000   0.0000

          k = 0.3536-0.0141 0.6930 (   734 PWs)   bands (ev):

    -1.4433  -1.1807   2.3700   2.5689  10.5549  10.7405  11.3860  11.5945
    16.8245  17.3028  19.3616  19.8644

     occupation numbers 
     1.0000   1.0000   1.0000   1.0000   0.0000   0.0000   0.0000   0.0000
     0.0000   0.0000   0.0000   0.0000

          k =-0.3394-0.7071 0.0000 (   730 PWs)   bands (ev):

    -1.3117  -1.3117   2.4662   2.4662  10.6011  10.6011  11.5331  11.5331
    17.0893  17.0893  19.5896  19.5896

     occupation numbers 
     1.0000   1.0000   1.0000   1.0000   0.0000   0.0000   0.0000   0.0000
     0.0000   0.0000   0.0000   0.0000

     the Fermi energy is     6.7879 ev
     (compare with:     6.7675 eV, computed in scf)

     Writing all to output data dir ./out/silicon.save/ :
     XML data file, pseudopotentials, collected wavefunctions

     init_run     :      0.07s CPU      0.08s WALL (       1 calls)
     electrons    :    112.39s CPU    116.96s WALL (       1 calls)

     Called by init_run:
     wfcinit      :      0.00s CPU      0.00s WALL (       1 calls)
     wfcinit:atom :      0.03s CPU      0.03s WALL (    3107 calls)
     wfcinit:wfcr :      2.70s CPU      2.80s WALL (    3107 calls)
     potinit      :      0.00s CPU      0.00s WALL (       1 calls)
     hinit0       :      0.03s CPU      0.03s WALL (       1 calls)

     Called by electrons:
     c_bands      :    112.34s CPU    116.86s WALL (       1 calls)
     v_of_rho     :      0.00s CPU      0.00s WALL (       1 calls)
     v_h          :      0.00s CPU      0.00s WALL (       1 calls)
     v_xc         :      0.00s CPU      0.00s WALL (       1 calls)
     newd         :      0.00s CPU      0.01s WALL (       1 calls)

     Called by c_bands:
     init_us_2    :      0.07s CPU      0.07s WALL (    3107 calls)
     cegterg      :    109.06s CPU    113.15s WALL (    9088 calls)

     Called by sum_band:

     Called by *egterg:
     cdiaghg      :     18.97s CPU     19.04s WALL (  156596 calls)
     cegterg:over :      7.20s CPU      7.42s WALL (  153489 calls)
     cegterg:upda :      2.04s CPU      2.14s WALL (  153489 calls)
     cegterg:last :      3.65s CPU      3.75s WALL (   95701 calls)
     h_psi        :     74.97s CPU     78.14s WALL (  165684 calls)
     s_psi        :      2.49s CPU      2.57s WALL (  165684 calls)
     g_psi        :      0.19s CPU      0.22s WALL (  153489 calls)

     Called by h_psi:
     h_psi:calbec :      5.14s CPU      5.34s WALL (  165684 calls)
     vloc_psi     :     66.81s CPU     69.50s WALL (  165684 calls)
                                        0.00s GPU  (  165684 calls)
     add_vuspsi   :      2.74s CPU      2.83s WALL (  165684 calls)

     General routines
     calbec       :      5.07s CPU      5.22s WALL (  165684 calls)
     fft          :      0.00s CPU      0.00s WALL (      13 calls)
     ffts         :      0.00s CPU      0.00s WALL (       1 calls)
     fftw         :     58.92s CPU     61.07s WALL ( 2352510 calls)
     interpolate  :      0.00s CPU      0.00s WALL (       1 calls)
     davcio       :      0.01s CPU      0.30s WALL (    6214 calls)

     Parallel routines

     PWSCF        :   1m53.41s CPU   1m58.72s WALL


   This run was terminated on:  13: 0:35   7May2026            

=------------------------------------------------------------------------------=
   JOB DONE.
=------------------------------------------------------------------------------=
