
     Program PWSCF v.7.5 starts on  7May2026 at 12:22:40 

     This program is part of the open-source Quantum ESPRESSO suite
     for quantum simulation of materials; please cite
         "P. Giannozzi et al., J. Phys.:Condens. Matter 21 395502 (2009);
         "P. Giannozzi et al., J. Phys.:Condens. Matter 29 465901 (2017);
         "P. Giannozzi et al., J. Chem. Phys. 152 154105 (2020);
          URL http://www.quantum-espresso.org", 
     in publications or presentations arising from this work. More details at
     http://www.quantum-espresso.org/quote

     Parallel version (MPI), running on     6 processors

     MPI processes distributed on     1 nodes
     0 MiB available memory on the printing compute node when the environment starts

     Waiting for input...
     Reading input from standard input

     Current dimensions of program PWSCF are:
     Max number of different atomic species (ntypx) = 10
     Max number of k-points (npk) =  40000
     Max angular momentum in pseudopotentials (lmaxx) =  4

     Atomic positions and unit cell read from directory:
     ./out/silicon.save/

     Message from routine setup:
     using ibrav=0 with symmetry is DISCOURAGED, use correct ibrav instead

     R & G space division:  proc/nbgrp/npool/nimage =       6
     Subspace diagonalization in iterative solution of the eigenvalue problem:
     a serial algorithm will be used


     Parallelization info
     --------------------
     sticks:   dense  smooth     PW     G-vecs:    dense   smooth      PW
     Min         142      72     23                 2770      992     177
     Max         144      73     24                 2773      995     179
     Sum         859     433    139                16625     5961    1067

     Using Slab Decomposition



     bravais-lattice index     =            0
     lattice parameter (alat)  =       7.2125  a.u.
     unit-cell volume          =     265.3020 (a.u.)^3
     number of atoms/cell      =            2
     number of atomic types    =            1
     number of electrons       =         8.00
     number of Kohn-Sham states=           12
     kinetic-energy cutoff     =      30.0000  Ry
     charge density cutoff     =     240.0000  Ry
     Exchange-correlation= PBE
                           (   1   4   3   4   0   0   0)

     celldm(1)=   7.212489  celldm(2)=   0.000000  celldm(3)=   0.000000
     celldm(4)=   0.000000  celldm(5)=   0.000000  celldm(6)=   0.000000

     crystal axes: (cart. coord. in units of alat)
               a(1) = (  -0.707107   0.000000   0.707107 )  
               a(2) = (   0.000000   0.707107   0.707107 )  
               a(3) = (  -0.707107   0.707107   0.000000 )  

     reciprocal axes: (cart. coord. in units 2 pi/alat)
               b(1) = ( -0.707107 -0.707107  0.707107 )  
               b(2) = (  0.707107  0.707107  0.707107 )  
               b(3) = ( -0.707107  0.707107 -0.707107 )  


     PseudoPot. # 1 for Si read from file:
     ./pseudo/Si.pbe-n-rrkjus_psl.1.0.0.UPF
     MD5 check sum: 0b0bb1205258b0d07b9f9672cf965d36
     Pseudo is Ultrasoft + core correction, Zval =  4.0
     Generated using "atomic" code by A. Dal Corso  v.5.1
     Using radial grid of 1141 points,  6 beta functions with: 
                l(1) =   0
                l(2) =   0
                l(3) =   1
                l(4) =   1
                l(5) =   2
                l(6) =   2
     Q(r) pseudized with 0 coefficients 


     atomic species   valence    mass     pseudopotential
     Si                4.00    28.08550     Si( 1.00)

     48 Sym. Ops., with inversion, found (24 have fractional translation)


                                    s                        frac. trans.

      isym =  1     identity                                     

 cryst.   s( 1) = (     1          0          0      )
                  (     0          1          0      )
                  (     0          0          1      )

 cart.    s( 1) = (  1.0000000  0.0000000 -0.0000000 )
                  (  0.0000000  1.0000000  0.0000000 )
                  ( -0.0000000 -0.0000000  1.0000000 )


      isym =  2     180 deg rotation - cart. axis [0,0,1]        

 cryst.   s( 2) = (     0          1         -1      )
                  (     1          0         -1      )
                  (     0          0         -1      )

 cart.    s( 2) = ( -1.0000000 -0.0000000 -0.0000000 )
                  ( -0.0000000 -1.0000000  0.0000000 )
                  (  0.0000000  0.0000000  1.0000000 )


      isym =  3     180 deg rotation - cart. axis [0,1,0]        

 cryst.   s( 3) = (    -1          0          0      )
                  (    -1          0          1      )
                  (    -1          1          0      )

 cart.    s( 3) = ( -1.0000000  0.0000000  0.0000000 )
                  ( -0.0000000  1.0000000 -0.0000000 )
                  (  0.0000000 -0.0000000 -1.0000000 )


      isym =  4     180 deg rotation - cart. axis [1,0,0]        

 cryst.   s( 4) = (     0         -1          1      )
                  (     0         -1          0      )
                  (     1         -1          0      )

 cart.    s( 4) = (  1.0000000 -0.0000000  0.0000000 )
                  (  0.0000000 -1.0000000 -0.0000000 )
                  ( -0.0000000  0.0000000 -1.0000000 )


      isym =  5     180 deg rotation - cart. axis [1,1,0]        

 cryst.   s( 5) = (     0         -1          0      )    f =(  0.2500000 )
                  (    -1          0          0      )       (  0.2500000 )
                  (     0          0         -1      )       (  0.2500000 )

 cart.    s( 5) = (  0.0000000  1.0000000  0.0000000 )    f =( -0.3535534 )
                  (  1.0000000  0.0000000 -0.0000000 )       (  0.3535534 )
                  ( -0.0000000 -0.0000000 -1.0000000 )       (  0.3535534 )


      isym =  6     180 deg rotation - cart. axis [1,-1,0]       

 cryst.   s( 6) = (    -1          0          1      )    f =(  0.2500000 )
                  (     0         -1          1      )       (  0.2500000 )
                  (     0          0          1      )       (  0.2500000 )

 cart.    s( 6) = ( -0.0000000 -1.0000000  0.0000000 )    f =( -0.3535534 )
                  ( -1.0000000 -0.0000000 -0.0000000 )       (  0.3535534 )
                  (  0.0000000  0.0000000 -1.0000000 )       (  0.3535534 )


      isym =  7      90 deg rotation - cart. axis [0,0,-1]       

 cryst.   s( 7) = (     0          1          0      )    f =(  0.2500000 )
                  (     0          1         -1      )       (  0.2500000 )
                  (    -1          1          0      )       (  0.2500000 )

 cart.    s( 7) = ( -0.0000000  1.0000000 -0.0000000 )    f =( -0.3535534 )
                  ( -1.0000000  0.0000000  0.0000000 )       (  0.3535534 )
                  (  0.0000000 -0.0000000  1.0000000 )       (  0.3535534 )


      isym =  8      90 deg rotation - cart. axis [0,0,1]        

 cryst.   s( 8) = (     1          0         -1      )    f =(  0.2500000 )
                  (     1          0          0      )       (  0.2500000 )
                  (     1         -1          0      )       (  0.2500000 )

 cart.    s( 8) = (  0.0000000 -1.0000000 -0.0000000 )    f =( -0.3535534 )
                  (  1.0000000 -0.0000000  0.0000000 )       (  0.3535534 )
                  ( -0.0000000  0.0000000  1.0000000 )       (  0.3535534 )


      isym =  9     180 deg rotation - cart. axis [1,0,1]        

 cryst.   s( 9) = (    -1          0          0      )    f =(  0.2500000 )
                  (     0          0         -1      )       (  0.2500000 )
                  (     0         -1          0      )       (  0.2500000 )

 cart.    s( 9) = ( -0.0000000 -0.0000000  1.0000000 )    f =( -0.3535534 )
                  (  0.0000000 -1.0000000  0.0000000 )       (  0.3535534 )
                  (  1.0000000  0.0000000 -0.0000000 )       (  0.3535534 )


      isym = 10     180 deg rotation - cart. axis [-1,0,1]       

 cryst.   s(10) = (     1          0          0      )    f =(  0.2500000 )
                  (     1         -1          0      )       (  0.2500000 )
                  (     1          0         -1      )       (  0.2500000 )

 cart.    s(10) = (  0.0000000 -0.0000000 -1.0000000 )    f =( -0.3535534 )
                  ( -0.0000000 -1.0000000 -0.0000000 )       (  0.3535534 )
                  ( -1.0000000  0.0000000  0.0000000 )       (  0.3535534 )


      isym = 11      90 deg rotation - cart. axis [0,1,0]        

 cryst.   s(11) = (     0          1         -1      )    f =(  0.2500000 )
                  (    -1          1          0      )       (  0.2500000 )
                  (     0          1          0      )       (  0.2500000 )

 cart.    s(11) = (  0.0000000  0.0000000  1.0000000 )    f =( -0.3535534 )
                  ( -0.0000000  1.0000000  0.0000000 )       (  0.3535534 )
                  ( -1.0000000 -0.0000000 -0.0000000 )       (  0.3535534 )


      isym = 12      90 deg rotation - cart. axis [0,-1,0]       

 cryst.   s(12) = (     0         -1          1      )    f =(  0.2500000 )
                  (     0          0          1      )       (  0.2500000 )
                  (    -1          0          1      )       (  0.2500000 )

 cart.    s(12) = ( -0.0000000  0.0000000 -1.0000000 )    f =( -0.3535534 )
                  (  0.0000000  1.0000000 -0.0000000 )       (  0.3535534 )
                  (  1.0000000 -0.0000000  0.0000000 )       (  0.3535534 )


      isym = 13     180 deg rotation - cart. axis [0,1,1]        

 cryst.   s(13) = (    -1          1          0      )    f =(  0.2500000 )
                  (     0          1          0      )       (  0.2500000 )
                  (     0          1         -1      )       (  0.2500000 )

 cart.    s(13) = ( -1.0000000 -0.0000000  0.0000000 )    f =( -0.3535534 )
                  ( -0.0000000  0.0000000  1.0000000 )       (  0.3535534 )
                  (  0.0000000  1.0000000 -0.0000000 )       (  0.3535534 )


      isym = 14     180 deg rotation - cart. axis [0,1,-1]       

 cryst.   s(14) = (     0          0         -1      )    f =(  0.2500000 )
                  (     0         -1          0      )       (  0.2500000 )
                  (    -1          0          0      )       (  0.2500000 )

 cart.    s(14) = ( -1.0000000  0.0000000 -0.0000000 )    f =( -0.3535534 )
                  ( -0.0000000 -0.0000000 -1.0000000 )       (  0.3535534 )
                  (  0.0000000 -1.0000000  0.0000000 )       (  0.3535534 )


      isym = 15      90 deg rotation - cart. axis [-1,0,0]       

 cryst.   s(15) = (     0          0          1      )    f =(  0.2500000 )
                  (    -1          0          1      )       (  0.2500000 )
                  (     0         -1          1      )       (  0.2500000 )

 cart.    s(15) = (  1.0000000  0.0000000  0.0000000 )    f =( -0.3535534 )
                  (  0.0000000 -0.0000000  1.0000000 )       (  0.3535534 )
                  ( -0.0000000 -1.0000000 -0.0000000 )       (  0.3535534 )


      isym = 16      90 deg rotation - cart. axis [1,0,0]        

 cryst.   s(16) = (     1         -1          0      )    f =(  0.2500000 )
                  (     1          0         -1      )       (  0.2500000 )
                  (     1          0          0      )       (  0.2500000 )

 cart.    s(16) = (  1.0000000 -0.0000000 -0.0000000 )    f =( -0.3535534 )
                  (  0.0000000  0.0000000 -1.0000000 )       (  0.3535534 )
                  ( -0.0000000  1.0000000  0.0000000 )       (  0.3535534 )


      isym = 17     120 deg rotation - cart. axis [-1,-1,-1]     

 cryst.   s(17) = (    -1          0          1      )
                  (    -1          1          0      )
                  (    -1          0          0      )

 cart.    s(17) = ( -0.0000000  1.0000000  0.0000000 )
                  (  0.0000000  0.0000000  1.0000000 )
                  (  1.0000000 -0.0000000 -0.0000000 )


      isym = 18     120 deg rotation - cart. axis [-1,1,1]       

 cryst.   s(18) = (     0          1          0      )
                  (     0          0          1      )
                  (     1          0          0      )

 cart.    s(18) = (  0.0000000 -1.0000000  0.0000000 )
                  ( -0.0000000 -0.0000000  1.0000000 )
                  ( -1.0000000  0.0000000 -0.0000000 )


      isym = 19     120 deg rotation - cart. axis [1,1,-1]       

 cryst.   s(19) = (     1          0         -1      )
                  (     0          0         -1      )
                  (     0          1         -1      )

 cart.    s(19) = (  0.0000000  1.0000000 -0.0000000 )
                  ( -0.0000000  0.0000000 -1.0000000 )
                  ( -1.0000000 -0.0000000  0.0000000 )


      isym = 20     120 deg rotation - cart. axis [1,-1,1]       

 cryst.   s(20) = (     0         -1          0      )
                  (     1         -1          0      )
                  (     0         -1          1      )

 cart.    s(20) = ( -0.0000000 -1.0000000 -0.0000000 )
                  (  0.0000000 -0.0000000 -1.0000000 )
                  (  1.0000000  0.0000000  0.0000000 )


      isym = 21     120 deg rotation - cart. axis [1,1,1]        

 cryst.   s(21) = (     0          0         -1      )
                  (     0          1         -1      )
                  (     1          0         -1      )

 cart.    s(21) = (  0.0000000 -0.0000000  1.0000000 )
                  (  1.0000000  0.0000000  0.0000000 )
                  ( -0.0000000  1.0000000 -0.0000000 )


      isym = 22     120 deg rotation - cart. axis [-1,1,-1]      

 cryst.   s(22) = (    -1          1          0      )
                  (    -1          0          0      )
                  (    -1          0          1      )

 cart.    s(22) = ( -0.0000000  0.0000000  1.0000000 )
                  ( -1.0000000 -0.0000000  0.0000000 )
                  (  0.0000000 -1.0000000 -0.0000000 )


      isym = 23     120 deg rotation - cart. axis [1,-1,-1]      

 cryst.   s(23) = (     0          0          1      )
                  (     1          0          0      )
                  (     0          1          0      )

 cart.    s(23) = ( -0.0000000 -0.0000000 -1.0000000 )
                  ( -1.0000000  0.0000000 -0.0000000 )
                  (  0.0000000  1.0000000  0.0000000 )


      isym = 24     120 deg rotation - cart. axis [-1,-1,1]      

 cryst.   s(24) = (     1         -1          0      )
                  (     0         -1          1      )
                  (     0         -1          0      )

 cart.    s(24) = (  0.0000000  0.0000000 -1.0000000 )
                  (  1.0000000 -0.0000000 -0.0000000 )
                  ( -0.0000000 -1.0000000  0.0000000 )


      isym = 25     inversion                                    

 cryst.   s(25) = (    -1          0          0      )    f =(  0.2500000 )
                  (     0         -1          0      )       (  0.2500000 )
                  (     0          0         -1      )       (  0.2500000 )

 cart.    s(25) = ( -1.0000000 -0.0000000  0.0000000 )    f =( -0.3535534 )
                  ( -0.0000000 -1.0000000 -0.0000000 )       (  0.3535534 )
                  (  0.0000000  0.0000000 -1.0000000 )       (  0.3535534 )


      isym = 26     inv. 180 deg rotation - cart. axis [0,0,1]   

 cryst.   s(26) = (     0         -1          1      )    f =(  0.2500000 )
                  (    -1          0          1      )       (  0.2500000 )
                  (     0          0          1      )       (  0.2500000 )

 cart.    s(26) = (  1.0000000  0.0000000  0.0000000 )    f =( -0.3535534 )
                  (  0.0000000  1.0000000 -0.0000000 )       (  0.3535534 )
                  ( -0.0000000 -0.0000000 -1.0000000 )       (  0.3535534 )


      isym = 27     inv. 180 deg rotation - cart. axis [0,1,0]   

 cryst.   s(27) = (     1          0          0      )    f =(  0.2500000 )
                  (     1          0         -1      )       (  0.2500000 )
                  (     1         -1          0      )       (  0.2500000 )

 cart.    s(27) = (  1.0000000 -0.0000000 -0.0000000 )    f =( -0.3535534 )
                  (  0.0000000 -1.0000000  0.0000000 )       (  0.3535534 )
                  ( -0.0000000  0.0000000  1.0000000 )       (  0.3535534 )


      isym = 28     inv. 180 deg rotation - cart. axis [1,0,0]   

 cryst.   s(28) = (     0          1         -1      )    f =(  0.2500000 )
                  (     0          1          0      )       (  0.2500000 )
                  (    -1          1          0      )       (  0.2500000 )

 cart.    s(28) = ( -1.0000000  0.0000000 -0.0000000 )    f =( -0.3535534 )
                  ( -0.0000000  1.0000000  0.0000000 )       (  0.3535534 )
                  (  0.0000000 -0.0000000  1.0000000 )       (  0.3535534 )


      isym = 29     inv. 180 deg rotation - cart. axis [1,1,0]   

 cryst.   s(29) = (     0          1          0      )
                  (     1          0          0      )
                  (     0          0          1      )

 cart.    s(29) = ( -0.0000000 -1.0000000 -0.0000000 )
                  ( -1.0000000 -0.0000000  0.0000000 )
                  (  0.0000000  0.0000000  1.0000000 )


      isym = 30     inv. 180 deg rotation - cart. axis [1,-1,0]  

 cryst.   s(30) = (     1          0         -1      )
                  (     0          1         -1      )
                  (     0          0         -1      )

 cart.    s(30) = (  0.0000000  1.0000000 -0.0000000 )
                  (  1.0000000  0.0000000  0.0000000 )
                  ( -0.0000000 -0.0000000  1.0000000 )


      isym = 31     inv.  90 deg rotation - cart. axis [0,0,-1]  

 cryst.   s(31) = (     0         -1          0      )
                  (     0         -1          1      )
                  (     1         -1          0      )

 cart.    s(31) = (  0.0000000 -1.0000000  0.0000000 )
                  (  1.0000000 -0.0000000 -0.0000000 )
                  ( -0.0000000  0.0000000 -1.0000000 )


      isym = 32     inv.  90 deg rotation - cart. axis [0,0,1]   

 cryst.   s(32) = (    -1          0          1      )
                  (    -1          0          0      )
                  (    -1          1          0      )

 cart.    s(32) = ( -0.0000000  1.0000000  0.0000000 )
                  ( -1.0000000  0.0000000 -0.0000000 )
                  (  0.0000000 -0.0000000 -1.0000000 )


      isym = 33     inv. 180 deg rotation - cart. axis [1,0,1]   

 cryst.   s(33) = (     1          0          0      )
                  (     0          0          1      )
                  (     0          1          0      )

 cart.    s(33) = (  0.0000000  0.0000000 -1.0000000 )
                  ( -0.0000000  1.0000000 -0.0000000 )
                  ( -1.0000000 -0.0000000  0.0000000 )


      isym = 34     inv. 180 deg rotation - cart. axis [-1,0,1]  

 cryst.   s(34) = (    -1          0          0      )
                  (    -1          1          0      )
                  (    -1          0          1      )

 cart.    s(34) = ( -0.0000000  0.0000000  1.0000000 )
                  (  0.0000000  1.0000000  0.0000000 )
                  (  1.0000000 -0.0000000 -0.0000000 )


      isym = 35     inv.  90 deg rotation - cart. axis [0,1,0]   

 cryst.   s(35) = (     0         -1          1      )
                  (     1         -1          0      )
                  (     0         -1          0      )

 cart.    s(35) = ( -0.0000000 -0.0000000 -1.0000000 )
                  (  0.0000000 -1.0000000 -0.0000000 )
                  (  1.0000000  0.0000000  0.0000000 )


      isym = 36     inv.  90 deg rotation - cart. axis [0,-1,0]  

 cryst.   s(36) = (     0          1         -1      )
                  (     0          0         -1      )
                  (     1          0         -1      )

 cart.    s(36) = (  0.0000000 -0.0000000  1.0000000 )
                  ( -0.0000000 -1.0000000  0.0000000 )
                  ( -1.0000000  0.0000000 -0.0000000 )


      isym = 37     inv. 180 deg rotation - cart. axis [0,1,1]   

 cryst.   s(37) = (     1         -1          0      )
                  (     0         -1          0      )
                  (     0         -1          1      )

 cart.    s(37) = (  1.0000000  0.0000000 -0.0000000 )
                  (  0.0000000 -0.0000000 -1.0000000 )
                  ( -0.0000000 -1.0000000  0.0000000 )


      isym = 38     inv. 180 deg rotation - cart. axis [0,1,-1]  

 cryst.   s(38) = (     0          0          1      )
                  (     0          1          0      )
                  (     1          0          0      )

 cart.    s(38) = (  1.0000000 -0.0000000  0.0000000 )
                  (  0.0000000  0.0000000  1.0000000 )
                  ( -0.0000000  1.0000000 -0.0000000 )


      isym = 39     inv.  90 deg rotation - cart. axis [-1,0,0]  

 cryst.   s(39) = (     0          0         -1      )
                  (     1          0         -1      )
                  (     0          1         -1      )

 cart.    s(39) = ( -1.0000000 -0.0000000 -0.0000000 )
                  ( -0.0000000  0.0000000 -1.0000000 )
                  (  0.0000000  1.0000000  0.0000000 )


      isym = 40     inv.  90 deg rotation - cart. axis [1,0,0]   

 cryst.   s(40) = (    -1          1          0      )
                  (    -1          0          1      )
                  (    -1          0          0      )

 cart.    s(40) = ( -1.0000000  0.0000000  0.0000000 )
                  ( -0.0000000 -0.0000000  1.0000000 )
                  (  0.0000000 -1.0000000 -0.0000000 )


      isym = 41     inv. 120 deg rotation - cart. axis [-1,-1,-1]

 cryst.   s(41) = (     1          0         -1      )    f =(  0.2500000 )
                  (     1         -1          0      )       (  0.2500000 )
                  (     1          0          0      )       (  0.2500000 )

 cart.    s(41) = (  0.0000000 -1.0000000 -0.0000000 )    f =( -0.3535534 )
                  ( -0.0000000 -0.0000000 -1.0000000 )       (  0.3535534 )
                  ( -1.0000000  0.0000000  0.0000000 )       (  0.3535534 )


      isym = 42     inv. 120 deg rotation - cart. axis [-1,1,1]  

 cryst.   s(42) = (     0         -1          0      )    f =(  0.2500000 )
                  (     0          0         -1      )       (  0.2500000 )
                  (    -1          0          0      )       (  0.2500000 )

 cart.    s(42) = ( -0.0000000  1.0000000 -0.0000000 )    f =( -0.3535534 )
                  (  0.0000000  0.0000000 -1.0000000 )       (  0.3535534 )
                  (  1.0000000 -0.0000000  0.0000000 )       (  0.3535534 )


      isym = 43     inv. 120 deg rotation - cart. axis [1,1,-1]  

 cryst.   s(43) = (    -1          0          1      )    f =(  0.2500000 )
                  (     0          0          1      )       (  0.2500000 )
                  (     0         -1          1      )       (  0.2500000 )

 cart.    s(43) = ( -0.0000000 -1.0000000  0.0000000 )    f =( -0.3535534 )
                  (  0.0000000 -0.0000000  1.0000000 )       (  0.3535534 )
                  (  1.0000000  0.0000000 -0.0000000 )       (  0.3535534 )


      isym = 44     inv. 120 deg rotation - cart. axis [1,-1,1]  

 cryst.   s(44) = (     0          1          0      )    f =(  0.2500000 )
                  (    -1          1          0      )       (  0.2500000 )
                  (     0          1         -1      )       (  0.2500000 )

 cart.    s(44) = (  0.0000000  1.0000000  0.0000000 )    f =( -0.3535534 )
                  ( -0.0000000  0.0000000  1.0000000 )       (  0.3535534 )
                  ( -1.0000000 -0.0000000 -0.0000000 )       (  0.3535534 )


      isym = 45     inv. 120 deg rotation - cart. axis [1,1,1]   

 cryst.   s(45) = (     0          0          1      )    f =(  0.2500000 )
                  (     0         -1          1      )       (  0.2500000 )
                  (    -1          0          1      )       (  0.2500000 )

 cart.    s(45) = ( -0.0000000  0.0000000 -1.0000000 )    f =( -0.3535534 )
                  ( -1.0000000 -0.0000000 -0.0000000 )       (  0.3535534 )
                  (  0.0000000 -1.0000000  0.0000000 )       (  0.3535534 )


      isym = 46     inv. 120 deg rotation - cart. axis [-1,1,-1] 

 cryst.   s(46) = (     1         -1          0      )    f =(  0.2500000 )
                  (     1          0          0      )       (  0.2500000 )
                  (     1          0         -1      )       (  0.2500000 )

 cart.    s(46) = (  0.0000000 -0.0000000 -1.0000000 )    f =( -0.3535534 )
                  (  1.0000000  0.0000000 -0.0000000 )       (  0.3535534 )
                  ( -0.0000000  1.0000000  0.0000000 )       (  0.3535534 )


      isym = 47     inv. 120 deg rotation - cart. axis [1,-1,-1] 

 cryst.   s(47) = (     0          0         -1      )    f =(  0.2500000 )
                  (    -1          0          0      )       (  0.2500000 )
                  (     0         -1          0      )       (  0.2500000 )

 cart.    s(47) = (  0.0000000  0.0000000  1.0000000 )    f =( -0.3535534 )
                  (  1.0000000 -0.0000000  0.0000000 )       (  0.3535534 )
                  ( -0.0000000 -1.0000000 -0.0000000 )       (  0.3535534 )


      isym = 48     inv. 120 deg rotation - cart. axis [-1,-1,1] 

 cryst.   s(48) = (    -1          1          0      )    f =(  0.2500000 )
                  (     0          1         -1      )       (  0.2500000 )
                  (     0          1          0      )       (  0.2500000 )

 cart.    s(48) = ( -0.0000000 -0.0000000  1.0000000 )    f =( -0.3535534 )
                  ( -1.0000000  0.0000000  0.0000000 )       (  0.3535534 )
                  (  0.0000000  1.0000000 -0.0000000 )       (  0.3535534 )


   Cartesian axes

     site n.     atom                  positions (alat units)
         1        Si     tau(   1) = (   0.0000000   0.0000000   0.0000000  )
         2        Si     tau(   2) = (   0.3535534   0.3535534   0.3535534  )

   Crystallographic axes

     site n.     atom                  positions (cryst. coord.)
         1        Si     tau(   1) = (  0.0000000  0.0000000  0.0000000  )
         2        Si     tau(   2) = ( -0.2500000  0.7500000 -0.2500000  )

     number of k points=   122  Marzari-Vanderbilt smearing, width (Ry)=  0.0200
                       cart. coord. in units 2pi/alat
        k(    1) = (   0.0000000   0.0000000   0.0000000), wk =   0.0163934
        k(    2) = (  -0.0353553  -0.0000000   0.0000000), wk =   0.0163934
        k(    3) = (  -0.0707107  -0.0000000   0.0000000), wk =   0.0163934
        k(    4) = (  -0.1060660  -0.0000000   0.0000000), wk =   0.0163934
        k(    5) = (  -0.1414214  -0.0000000   0.0000000), wk =   0.0163934
        k(    6) = (  -0.1767767   0.0000000   0.0000000), wk =   0.0163934
        k(    7) = (  -0.2121320  -0.0000000   0.0000000), wk =   0.0163934
        k(    8) = (  -0.2474874   0.0000000  -0.0000000), wk =   0.0163934
        k(    9) = (  -0.2828427  -0.0000000   0.0000000), wk =   0.0163934
        k(   10) = (  -0.3181981  -0.0000000   0.0000000), wk =   0.0163934
        k(   11) = (  -0.3535534   0.0000000   0.0000000), wk =   0.0163934
        k(   12) = (  -0.3889087  -0.0000000   0.0000000), wk =   0.0163934
        k(   13) = (  -0.4242641  -0.0000000   0.0000000), wk =   0.0163934
        k(   14) = (  -0.4596194   0.0000000  -0.0000000), wk =   0.0163934
        k(   15) = (  -0.4949747   0.0000000  -0.0000000), wk =   0.0163934
        k(   16) = (  -0.5303301  -0.0000000   0.0000000), wk =   0.0163934
        k(   17) = (  -0.5656854  -0.0000000   0.0000000), wk =   0.0163934
        k(   18) = (  -0.6010408  -0.0000000   0.0000000), wk =   0.0163934
        k(   19) = (  -0.6363961  -0.0000000   0.0000000), wk =   0.0163934
        k(   20) = (  -0.6717514  -0.0000000   0.0000000), wk =   0.0163934
        k(   21) = (  -0.7071068   0.0000000   0.0000000), wk =   0.0163934
        k(   22) = (  -0.7071068   0.0088388   0.0088388), wk =   0.0163934
        k(   23) = (  -0.7071068   0.0176777   0.0176777), wk =   0.0163934
        k(   24) = (  -0.7071068   0.0265165   0.0265165), wk =   0.0163934
        k(   25) = (  -0.7071068   0.0353553   0.0353553), wk =   0.0163934
        k(   26) = (  -0.7071068   0.0441942   0.0441942), wk =   0.0163934
        k(   27) = (  -0.7071068   0.0530330   0.0530330), wk =   0.0163934
        k(   28) = (  -0.7071068   0.0618718   0.0618718), wk =   0.0163934
        k(   29) = (  -0.7071068   0.0707107   0.0707107), wk =   0.0163934
        k(   30) = (  -0.7071068   0.0795495   0.0795495), wk =   0.0163934
        k(   31) = (  -0.7071068   0.0883883   0.0883883), wk =   0.0163934
        k(   32) = (  -0.7071068   0.0972272   0.0972272), wk =   0.0163934
        k(   33) = (  -0.7071068   0.1060660   0.1060660), wk =   0.0163934
        k(   34) = (  -0.7071068   0.1149049   0.1149049), wk =   0.0163934
        k(   35) = (  -0.7071068   0.1237437   0.1237437), wk =   0.0163934
        k(   36) = (  -0.7071068   0.1325825   0.1325825), wk =   0.0163934
        k(   37) = (  -0.7071068   0.1414214   0.1414214), wk =   0.0163934
        k(   38) = (  -0.7071068   0.1502602   0.1502602), wk =   0.0163934
        k(   39) = (  -0.7071068   0.1590990   0.1590990), wk =   0.0163934
        k(   40) = (  -0.7071068   0.1679379   0.1679379), wk =   0.0163934
        k(   41) = (  -0.7071068   0.1767767   0.1767767), wk =   0.0163934
        k(   42) = (  -0.5303301   0.5303301   0.0000000), wk =   0.0163934
        k(   43) = (  -0.5038136   0.5038136  -0.0000000), wk =   0.0163934
        k(   44) = (  -0.4772971   0.4772971  -0.0000000), wk =   0.0163934
        k(   45) = (  -0.4507806   0.4507806  -0.0000000), wk =   0.0163934
        k(   46) = (  -0.4242641   0.4242641  -0.0000000), wk =   0.0163934
        k(   47) = (  -0.3977476   0.3977476   0.0000000), wk =   0.0163934
        k(   48) = (  -0.3712311   0.3712311   0.0000000), wk =   0.0163934
        k(   49) = (  -0.3447146   0.3447146   0.0000000), wk =   0.0163934
        k(   50) = (  -0.3181981   0.3181981  -0.0000000), wk =   0.0163934
        k(   51) = (  -0.2916815   0.2916815  -0.0000000), wk =   0.0163934
        k(   52) = (  -0.2651650   0.2651650   0.0000000), wk =   0.0163934
        k(   53) = (  -0.2386485   0.2386485   0.0000000), wk =   0.0163934
        k(   54) = (  -0.2121320   0.2121320   0.0000000), wk =   0.0163934
        k(   55) = (  -0.1856155   0.1856155   0.0000000), wk =   0.0163934
        k(   56) = (  -0.1590990   0.1590990  -0.0000000), wk =   0.0163934
        k(   57) = (  -0.1325825   0.1325825   0.0000000), wk =   0.0163934
        k(   58) = (  -0.1060660   0.1060660   0.0000000), wk =   0.0163934
        k(   59) = (  -0.0795495   0.0795495  -0.0000000), wk =   0.0163934
        k(   60) = (  -0.0530330   0.0530330   0.0000000), wk =   0.0163934
        k(   61) = (  -0.0265165   0.0265165  -0.0000000), wk =   0.0163934
        k(   62) = (   0.0000000   0.0000000   0.0000000), wk =   0.0163934
        k(   63) = (  -0.0176777   0.0176777   0.0176777), wk =   0.0163934
        k(   64) = (  -0.0353553   0.0353553   0.0353553), wk =   0.0163934
        k(   65) = (  -0.0530330   0.0530330   0.0530330), wk =   0.0163934
        k(   66) = (  -0.0707107   0.0707107   0.0707107), wk =   0.0163934
        k(   67) = (  -0.0883883   0.0883883   0.0883883), wk =   0.0163934
        k(   68) = (  -0.1060660   0.1060660   0.1060660), wk =   0.0163934
        k(   69) = (  -0.1237437   0.1237437   0.1237437), wk =   0.0163934
        k(   70) = (  -0.1414214   0.1414214   0.1414214), wk =   0.0163934
        k(   71) = (  -0.1590990   0.1590990   0.1590990), wk =   0.0163934
        k(   72) = (  -0.1767767   0.1767767   0.1767767), wk =   0.0163934
        k(   73) = (  -0.1944544   0.1944544   0.1944544), wk =   0.0163934
        k(   74) = (  -0.2121320   0.2121320   0.2121320), wk =   0.0163934
        k(   75) = (  -0.2298097   0.2298097   0.2298097), wk =   0.0163934
        k(   76) = (  -0.2474874   0.2474874   0.2474874), wk =   0.0163934
        k(   77) = (  -0.2651650   0.2651650   0.2651650), wk =   0.0163934
        k(   78) = (  -0.2828427   0.2828427   0.2828427), wk =   0.0163934
        k(   79) = (  -0.3005204   0.3005204   0.3005204), wk =   0.0163934
        k(   80) = (  -0.3181981   0.3181981   0.3181981), wk =   0.0163934
        k(   81) = (  -0.3358757   0.3358757   0.3358757), wk =   0.0163934
        k(   82) = (  -0.3535534   0.3535534   0.3535534), wk =   0.0163934
        k(   83) = (  -0.3712311   0.3535534   0.3358757), wk =   0.0163934
        k(   84) = (  -0.3889087   0.3535534   0.3181981), wk =   0.0163934
        k(   85) = (  -0.4065864   0.3535534   0.3005204), wk =   0.0163934
        k(   86) = (  -0.4242641   0.3535534   0.2828427), wk =   0.0163934
        k(   87) = (  -0.4419417   0.3535534   0.2651650), wk =   0.0163934
        k(   88) = (  -0.4596194   0.3535534   0.2474874), wk =   0.0163934
        k(   89) = (  -0.4772971   0.3535534   0.2298097), wk =   0.0163934
        k(   90) = (  -0.4949747   0.3535534   0.2121320), wk =   0.0163934
        k(   91) = (  -0.5126524   0.3535534   0.1944544), wk =   0.0163934
        k(   92) = (  -0.5303301   0.3535534   0.1767767), wk =   0.0163934
        k(   93) = (  -0.5480078   0.3535534   0.1590990), wk =   0.0163934
        k(   94) = (  -0.5656854   0.3535534   0.1414214), wk =   0.0163934
        k(   95) = (  -0.5833631   0.3535534   0.1237437), wk =   0.0163934
        k(   96) = (  -0.6010408   0.3535534   0.1060660), wk =   0.0163934
        k(   97) = (  -0.6187184   0.3535534   0.0883883), wk =   0.0163934
        k(   98) = (  -0.6363961   0.3535534   0.0707107), wk =   0.0163934
        k(   99) = (  -0.6540738   0.3535534   0.0530330), wk =   0.0163934
        k(  100) = (  -0.6717514   0.3535534   0.0353553), wk =   0.0163934
        k(  101) = (  -0.6894291   0.3535534   0.0176777), wk =   0.0163934
        k(  102) = (  -0.7071068   0.3535534   0.0000000), wk =   0.0163934
        k(  103) = (  -0.7071068   0.3358757   0.0000000), wk =   0.0163934
        k(  104) = (  -0.7071068   0.3181981   0.0000000), wk =   0.0163934
        k(  105) = (  -0.7071068   0.3005204  -0.0000000), wk =   0.0163934
        k(  106) = (  -0.7071068   0.2828427   0.0000000), wk =   0.0163934
        k(  107) = (  -0.7071068   0.2651650   0.0000000), wk =   0.0163934
        k(  108) = (  -0.7071068   0.2474874  -0.0000000), wk =   0.0163934
        k(  109) = (  -0.7071068   0.2298097   0.0000000), wk =   0.0163934
        k(  110) = (  -0.7071068   0.2121320  -0.0000000), wk =   0.0163934
        k(  111) = (  -0.7071068   0.1944544   0.0000000), wk =   0.0163934
        k(  112) = (  -0.7071068   0.1767767  -0.0000000), wk =   0.0163934
        k(  113) = (  -0.7071068   0.1590990  -0.0000000), wk =   0.0163934
        k(  114) = (  -0.7071068   0.1414214  -0.0000000), wk =   0.0163934
        k(  115) = (  -0.7071068   0.1237437  -0.0000000), wk =   0.0163934
        k(  116) = (  -0.7071068   0.1060660   0.0000000), wk =   0.0163934
        k(  117) = (  -0.7071068   0.0883883   0.0000000), wk =   0.0163934
        k(  118) = (  -0.7071068   0.0707107  -0.0000000), wk =   0.0163934
        k(  119) = (  -0.7071068   0.0530330   0.0000000), wk =   0.0163934
        k(  120) = (  -0.7071068   0.0353553   0.0000000), wk =   0.0163934
        k(  121) = (  -0.7071068   0.0176777   0.0000000), wk =   0.0163934
        k(  122) = (  -0.7071068   0.0000000   0.0000000), wk =   0.0163934

                       cryst. coord.
        k(    1) = (   0.0000000   0.0000000   0.0000000), wk =   0.0163934
        k(    2) = (   0.0250000  -0.0000000   0.0250000), wk =   0.0163934
        k(    3) = (   0.0500000  -0.0000000   0.0500000), wk =   0.0163934
        k(    4) = (   0.0750000   0.0000000   0.0750000), wk =   0.0163934
        k(    5) = (   0.1000000  -0.0000000   0.1000000), wk =   0.0163934
        k(    6) = (   0.1250000   0.0000000   0.1250000), wk =   0.0163934
        k(    7) = (   0.1500000   0.0000000   0.1500000), wk =   0.0163934
        k(    8) = (   0.1750000   0.0000000   0.1750000), wk =   0.0163934
        k(    9) = (   0.2000000  -0.0000000   0.2000000), wk =   0.0163934
        k(   10) = (   0.2250000  -0.0000000   0.2250000), wk =   0.0163934
        k(   11) = (   0.2500000   0.0000000   0.2500000), wk =   0.0163934
        k(   12) = (   0.2750000   0.0000000   0.2750000), wk =   0.0163934
        k(   13) = (   0.3000000   0.0000000   0.3000000), wk =   0.0163934
        k(   14) = (   0.3250000  -0.0000000   0.3250000), wk =   0.0163934
        k(   15) = (   0.3500000   0.0000000   0.3500000), wk =   0.0163934
        k(   16) = (   0.3750000   0.0000000   0.3750000), wk =   0.0163934
        k(   17) = (   0.4000000  -0.0000000   0.4000000), wk =   0.0163934
        k(   18) = (   0.4250000   0.0000000   0.4250000), wk =   0.0163934
        k(   19) = (   0.4500000  -0.0000000   0.4500000), wk =   0.0163934
        k(   20) = (   0.4750000  -0.0000000   0.4750000), wk =   0.0163934
        k(   21) = (   0.5000000   0.0000000   0.5000000), wk =   0.0163934
        k(   22) = (   0.5062500   0.0125000   0.5062500), wk =   0.0163934
        k(   23) = (   0.5125000   0.0250000   0.5125000), wk =   0.0163934
        k(   24) = (   0.5187500   0.0375000   0.5187500), wk =   0.0163934
        k(   25) = (   0.5250000   0.0500000   0.5250000), wk =   0.0163934
        k(   26) = (   0.5312500   0.0625000   0.5312500), wk =   0.0163934
        k(   27) = (   0.5375000   0.0750000   0.5375000), wk =   0.0163934
        k(   28) = (   0.5437500   0.0875000   0.5437500), wk =   0.0163934
        k(   29) = (   0.5500000   0.1000000   0.5500000), wk =   0.0163934
        k(   30) = (   0.5562500   0.1125000   0.5562500), wk =   0.0163934
        k(   31) = (   0.5625000   0.1250000   0.5625000), wk =   0.0163934
        k(   32) = (   0.5687500   0.1375000   0.5687500), wk =   0.0163934
        k(   33) = (   0.5750000   0.1500000   0.5750000), wk =   0.0163934
        k(   34) = (   0.5812500   0.1625000   0.5812500), wk =   0.0163934
        k(   35) = (   0.5875000   0.1750000   0.5875000), wk =   0.0163934
        k(   36) = (   0.5937500   0.1875000   0.5937500), wk =   0.0163934
        k(   37) = (   0.6000000   0.2000000   0.6000000), wk =   0.0163934
        k(   38) = (   0.6062500   0.2125000   0.6062500), wk =   0.0163934
        k(   39) = (   0.6125000   0.2250000   0.6125000), wk =   0.0163934
        k(   40) = (   0.6187500   0.2375000   0.6187500), wk =   0.0163934
        k(   41) = (   0.6250000   0.2500000   0.6250000), wk =   0.0163934
        k(   42) = (   0.3750000   0.3750000   0.7500000), wk =   0.0163934
        k(   43) = (   0.3562500   0.3562500   0.7125000), wk =   0.0163934
        k(   44) = (   0.3375000   0.3375000   0.6750000), wk =   0.0163934
        k(   45) = (   0.3187500   0.3187500   0.6375000), wk =   0.0163934
        k(   46) = (   0.3000000   0.3000000   0.6000000), wk =   0.0163934
        k(   47) = (   0.2812500   0.2812500   0.5625000), wk =   0.0163934
        k(   48) = (   0.2625000   0.2625000   0.5250000), wk =   0.0163934
        k(   49) = (   0.2437500   0.2437500   0.4875000), wk =   0.0163934
        k(   50) = (   0.2250000   0.2250000   0.4500000), wk =   0.0163934
        k(   51) = (   0.2062500   0.2062500   0.4125000), wk =   0.0163934
        k(   52) = (   0.1875000   0.1875000   0.3750000), wk =   0.0163934
        k(   53) = (   0.1687500   0.1687500   0.3375000), wk =   0.0163934
        k(   54) = (   0.1500000   0.1500000   0.3000000), wk =   0.0163934
        k(   55) = (   0.1312500   0.1312500   0.2625000), wk =   0.0163934
        k(   56) = (   0.1125000   0.1125000   0.2250000), wk =   0.0163934
        k(   57) = (   0.0937500   0.0937500   0.1875000), wk =   0.0163934
        k(   58) = (   0.0750000   0.0750000   0.1500000), wk =   0.0163934
        k(   59) = (   0.0562500   0.0562500   0.1125000), wk =   0.0163934
        k(   60) = (   0.0375000   0.0375000   0.0750000), wk =   0.0163934
        k(   61) = (   0.0187500   0.0187500   0.0375000), wk =   0.0163934
        k(   62) = (   0.0000000   0.0000000   0.0000000), wk =   0.0163934
        k(   63) = (   0.0250000   0.0250000   0.0250000), wk =   0.0163934
        k(   64) = (   0.0500000   0.0500000   0.0500000), wk =   0.0163934
        k(   65) = (   0.0750000   0.0750000   0.0750000), wk =   0.0163934
        k(   66) = (   0.1000000   0.1000000   0.1000000), wk =   0.0163934
        k(   67) = (   0.1250000   0.1250000   0.1250000), wk =   0.0163934
        k(   68) = (   0.1500000   0.1500000   0.1500000), wk =   0.0163934
        k(   69) = (   0.1750000   0.1750000   0.1750000), wk =   0.0163934
        k(   70) = (   0.2000000   0.2000000   0.2000000), wk =   0.0163934
        k(   71) = (   0.2250000   0.2250000   0.2250000), wk =   0.0163934
        k(   72) = (   0.2500000   0.2500000   0.2500000), wk =   0.0163934
        k(   73) = (   0.2750000   0.2750000   0.2750000), wk =   0.0163934
        k(   74) = (   0.3000000   0.3000000   0.3000000), wk =   0.0163934
        k(   75) = (   0.3250000   0.3250000   0.3250000), wk =   0.0163934
        k(   76) = (   0.3500000   0.3500000   0.3500000), wk =   0.0163934
        k(   77) = (   0.3750000   0.3750000   0.3750000), wk =   0.0163934
        k(   78) = (   0.4000000   0.4000000   0.4000000), wk =   0.0163934
        k(   79) = (   0.4250000   0.4250000   0.4250000), wk =   0.0163934
        k(   80) = (   0.4500000   0.4500000   0.4500000), wk =   0.0163934
        k(   81) = (   0.4750000   0.4750000   0.4750000), wk =   0.0163934
        k(   82) = (   0.5000000   0.5000000   0.5000000), wk =   0.0163934
        k(   83) = (   0.5000000   0.4875000   0.5125000), wk =   0.0163934
        k(   84) = (   0.5000000   0.4750000   0.5250000), wk =   0.0163934
        k(   85) = (   0.5000000   0.4625000   0.5375000), wk =   0.0163934
        k(   86) = (   0.5000000   0.4500000   0.5500000), wk =   0.0163934
        k(   87) = (   0.5000000   0.4375000   0.5625000), wk =   0.0163934
        k(   88) = (   0.5000000   0.4250000   0.5750000), wk =   0.0163934
        k(   89) = (   0.5000000   0.4125000   0.5875000), wk =   0.0163934
        k(   90) = (   0.5000000   0.4000000   0.6000000), wk =   0.0163934
        k(   91) = (   0.5000000   0.3875000   0.6125000), wk =   0.0163934
        k(   92) = (   0.5000000   0.3750000   0.6250000), wk =   0.0163934
        k(   93) = (   0.5000000   0.3625000   0.6375000), wk =   0.0163934
        k(   94) = (   0.5000000   0.3500000   0.6500000), wk =   0.0163934
        k(   95) = (   0.5000000   0.3375000   0.6625000), wk =   0.0163934
        k(   96) = (   0.5000000   0.3250000   0.6750000), wk =   0.0163934
        k(   97) = (   0.5000000   0.3125000   0.6875000), wk =   0.0163934
        k(   98) = (   0.5000000   0.3000000   0.7000000), wk =   0.0163934
        k(   99) = (   0.5000000   0.2875000   0.7125000), wk =   0.0163934
        k(  100) = (   0.5000000   0.2750000   0.7250000), wk =   0.0163934
        k(  101) = (   0.5000000   0.2625000   0.7375000), wk =   0.0163934
        k(  102) = (   0.5000000   0.2500000   0.7500000), wk =   0.0163934
        k(  103) = (   0.5000000   0.2375000   0.7375000), wk =   0.0163934
        k(  104) = (   0.5000000   0.2250000   0.7250000), wk =   0.0163934
        k(  105) = (   0.5000000   0.2125000   0.7125000), wk =   0.0163934
        k(  106) = (   0.5000000   0.2000000   0.7000000), wk =   0.0163934
        k(  107) = (   0.5000000   0.1875000   0.6875000), wk =   0.0163934
        k(  108) = (   0.5000000   0.1750000   0.6750000), wk =   0.0163934
        k(  109) = (   0.5000000   0.1625000   0.6625000), wk =   0.0163934
        k(  110) = (   0.5000000   0.1500000   0.6500000), wk =   0.0163934
        k(  111) = (   0.5000000   0.1375000   0.6375000), wk =   0.0163934
        k(  112) = (   0.5000000   0.1250000   0.6250000), wk =   0.0163934
        k(  113) = (   0.5000000   0.1125000   0.6125000), wk =   0.0163934
        k(  114) = (   0.5000000   0.1000000   0.6000000), wk =   0.0163934
        k(  115) = (   0.5000000   0.0875000   0.5875000), wk =   0.0163934
        k(  116) = (   0.5000000   0.0750000   0.5750000), wk =   0.0163934
        k(  117) = (   0.5000000   0.0625000   0.5625000), wk =   0.0163934
        k(  118) = (   0.5000000   0.0500000   0.5500000), wk =   0.0163934
        k(  119) = (   0.5000000   0.0375000   0.5375000), wk =   0.0163934
        k(  120) = (   0.5000000   0.0250000   0.5250000), wk =   0.0163934
        k(  121) = (   0.5000000   0.0125000   0.5125000), wk =   0.0163934
        k(  122) = (   0.5000000   0.0000000   0.5000000), wk =   0.0163934

     Dense  grid:    16625 G-vectors     FFT dimensions: (  36,  36,  36)

     Smooth grid:     5961 G-vectors     FFT dimensions: (  32,  32,  32)

     Dynamical RAM for                 wfc:       0.02 MB

     Dynamical RAM for     wfc (w. buffer):       0.02 MB

     Dynamical RAM for           str. fact:       0.04 MB

     Dynamical RAM for           local pot:       0.00 MB

     Dynamical RAM for          nlocal pot:       0.07 MB

     Dynamical RAM for                qrad:       1.24 MB

     Dynamical RAM for          rho,v,vnew:       0.30 MB

     Dynamical RAM for           G-vectors:       0.17 MB

     Dynamical RAM for          h,s,v(r/c):       0.03 MB

     Dynamical RAM for          <psi|beta>:       0.01 MB

     Dynamical RAM for                 psi:       0.04 MB

     Dynamical RAM for                hpsi:       0.04 MB

     Dynamical RAM for                spsi:       0.04 MB

     Dynamical RAM for      wfcinit/wfcrot:       0.05 MB

     Dynamical RAM for           addusdens:       7.95 MB

     Estimated static dynamical RAM per process >       2.23 MB

     Estimated max dynamical RAM per process >      10.18 MB

     Estimated total dynamical RAM >      61.10 MB

     The potential is recalculated from file :
     ./out/silicon.save/charge-density

     Starting wfcs are    8 randomized atomic wfcs +    4 random wfcs

     Band Structure Calculation
     Davidson diagonalization with overlap

     Computing kpt #:     1  of   122
     total cpu time spent up to now is        0.2 secs

     Computing kpt #:     2  of   122
     total cpu time spent up to now is        0.2 secs

     Computing kpt #:     3  of   122
     total cpu time spent up to now is        0.2 secs

     Computing kpt #:     4  of   122
     total cpu time spent up to now is        0.3 secs

     Computing kpt #:     5  of   122
     total cpu time spent up to now is        0.3 secs

     Computing kpt #:     6  of   122
     total cpu time spent up to now is        0.4 secs

     Computing kpt #:     7  of   122
     total cpu time spent up to now is        0.4 secs

     Computing kpt #:     8  of   122
     total cpu time spent up to now is        0.4 secs

     Computing kpt #:     9  of   122
     total cpu time spent up to now is        0.5 secs

     Computing kpt #:    10  of   122
     total cpu time spent up to now is        0.5 secs

     Computing kpt #:    11  of   122
     total cpu time spent up to now is        0.5 secs

     Computing kpt #:    12  of   122
     total cpu time spent up to now is        0.6 secs

     Computing kpt #:    13  of   122
     total cpu time spent up to now is        0.6 secs

     Computing kpt #:    14  of   122
     total cpu time spent up to now is        0.7 secs

     Computing kpt #:    15  of   122
     total cpu time spent up to now is        0.7 secs

     Computing kpt #:    16  of   122
     total cpu time spent up to now is        0.7 secs

     Computing kpt #:    17  of   122
     total cpu time spent up to now is        0.8 secs

     Computing kpt #:    18  of   122
     total cpu time spent up to now is        0.8 secs

     Computing kpt #:    19  of   122
     total cpu time spent up to now is        0.9 secs

     Computing kpt #:    20  of   122
     total cpu time spent up to now is        0.9 secs

     Computing kpt #:    21  of   122
     total cpu time spent up to now is        0.9 secs

     Computing kpt #:    22  of   122
     total cpu time spent up to now is        1.0 secs

     Computing kpt #:    23  of   122
     total cpu time spent up to now is        1.0 secs

     Computing kpt #:    24  of   122
     total cpu time spent up to now is        1.1 secs

     Computing kpt #:    25  of   122
     total cpu time spent up to now is        1.1 secs

     Computing kpt #:    26  of   122
     total cpu time spent up to now is        1.1 secs

     Computing kpt #:    27  of   122
     total cpu time spent up to now is        1.2 secs

     Computing kpt #:    28  of   122
     total cpu time spent up to now is        1.2 secs

     Computing kpt #:    29  of   122
     total cpu time spent up to now is        1.3 secs

     Computing kpt #:    30  of   122
     total cpu time spent up to now is        1.3 secs

     Computing kpt #:    31  of   122
     total cpu time spent up to now is        1.3 secs

     Computing kpt #:    32  of   122
     total cpu time spent up to now is        1.4 secs

     Computing kpt #:    33  of   122
     total cpu time spent up to now is        1.5 secs

     Computing kpt #:    34  of   122
     total cpu time spent up to now is        1.5 secs

     Computing kpt #:    35  of   122
     total cpu time spent up to now is        1.6 secs

     Computing kpt #:    36  of   122
     total cpu time spent up to now is        1.6 secs

     Computing kpt #:    37  of   122
     total cpu time spent up to now is        1.7 secs

     Computing kpt #:    38  of   122
     total cpu time spent up to now is        1.7 secs

     Computing kpt #:    39  of   122
     total cpu time spent up to now is        1.7 secs

     Computing kpt #:    40  of   122
     total cpu time spent up to now is        1.8 secs

     Computing kpt #:    41  of   122
     total cpu time spent up to now is        1.8 secs

     Computing kpt #:    42  of   122
     total cpu time spent up to now is        1.9 secs

     Computing kpt #:    43  of   122
     total cpu time spent up to now is        1.9 secs

     Computing kpt #:    44  of   122
     total cpu time spent up to now is        2.0 secs

     Computing kpt #:    45  of   122
     total cpu time spent up to now is        2.0 secs

     Computing kpt #:    46  of   122
     total cpu time spent up to now is        2.0 secs

     Computing kpt #:    47  of   122
     total cpu time spent up to now is        2.1 secs

     Computing kpt #:    48  of   122
     total cpu time spent up to now is        2.1 secs

     Computing kpt #:    49  of   122
     total cpu time spent up to now is        2.2 secs

     Computing kpt #:    50  of   122
     total cpu time spent up to now is        2.2 secs

     Computing kpt #:    51  of   122
     total cpu time spent up to now is        2.2 secs

     Computing kpt #:    52  of   122
     total cpu time spent up to now is        2.3 secs

     Computing kpt #:    53  of   122
     total cpu time spent up to now is        2.3 secs

     Computing kpt #:    54  of   122
     total cpu time spent up to now is        2.3 secs

     Computing kpt #:    55  of   122
     total cpu time spent up to now is        2.3 secs

     Computing kpt #:    56  of   122
     total cpu time spent up to now is        2.4 secs

     Computing kpt #:    57  of   122
     total cpu time spent up to now is        2.4 secs

     Computing kpt #:    58  of   122
     total cpu time spent up to now is        2.5 secs

     Computing kpt #:    59  of   122
     total cpu time spent up to now is        2.5 secs

     Computing kpt #:    60  of   122
     total cpu time spent up to now is        2.5 secs

     Computing kpt #:    61  of   122
     total cpu time spent up to now is        2.6 secs

     Computing kpt #:    62  of   122
     total cpu time spent up to now is        2.6 secs

     Computing kpt #:    63  of   122
     total cpu time spent up to now is        2.6 secs

     Computing kpt #:    64  of   122
     total cpu time spent up to now is        2.7 secs

     Computing kpt #:    65  of   122
     total cpu time spent up to now is        2.7 secs

     Computing kpt #:    66  of   122
     total cpu time spent up to now is        2.7 secs

     Computing kpt #:    67  of   122
     total cpu time spent up to now is        2.8 secs

     Computing kpt #:    68  of   122
     total cpu time spent up to now is        2.8 secs

     Computing kpt #:    69  of   122
     total cpu time spent up to now is        2.8 secs

     Computing kpt #:    70  of   122
     total cpu time spent up to now is        2.9 secs

     Computing kpt #:    71  of   122
     total cpu time spent up to now is        2.9 secs

     Computing kpt #:    72  of   122
     total cpu time spent up to now is        2.9 secs

     Computing kpt #:    73  of   122
     total cpu time spent up to now is        3.0 secs

     Computing kpt #:    74  of   122
     total cpu time spent up to now is        3.0 secs

     Computing kpt #:    75  of   122
     total cpu time spent up to now is        3.0 secs

     Computing kpt #:    76  of   122
     total cpu time spent up to now is        3.1 secs

     Computing kpt #:    77  of   122
     total cpu time spent up to now is        3.1 secs

     Computing kpt #:    78  of   122
     total cpu time spent up to now is        3.1 secs

     Computing kpt #:    79  of   122
     total cpu time spent up to now is        3.2 secs

     Computing kpt #:    80  of   122
     total cpu time spent up to now is        3.2 secs

     Computing kpt #:    81  of   122
     total cpu time spent up to now is        3.3 secs

     Computing kpt #:    82  of   122
     total cpu time spent up to now is        3.3 secs

     Computing kpt #:    83  of   122
     total cpu time spent up to now is        3.3 secs

     Computing kpt #:    84  of   122
     total cpu time spent up to now is        3.4 secs

     Computing kpt #:    85  of   122
     total cpu time spent up to now is        3.4 secs

     Computing kpt #:    86  of   122
     total cpu time spent up to now is        3.5 secs

     Computing kpt #:    87  of   122
     total cpu time spent up to now is        3.5 secs

     Computing kpt #:    88  of   122
     total cpu time spent up to now is        3.5 secs

     Computing kpt #:    89  of   122
     total cpu time spent up to now is        3.6 secs

     Computing kpt #:    90  of   122
     total cpu time spent up to now is        3.6 secs

     Computing kpt #:    91  of   122
     total cpu time spent up to now is        3.6 secs

     Computing kpt #:    92  of   122
     total cpu time spent up to now is        3.7 secs

     Computing kpt #:    93  of   122
     total cpu time spent up to now is        3.7 secs

     Computing kpt #:    94  of   122
     total cpu time spent up to now is        3.7 secs

     Computing kpt #:    95  of   122
     total cpu time spent up to now is        3.7 secs

     Computing kpt #:    96  of   122
     total cpu time spent up to now is        3.8 secs

     Computing kpt #:    97  of   122
     total cpu time spent up to now is        3.8 secs

     Computing kpt #:    98  of   122
     total cpu time spent up to now is        3.9 secs

     Computing kpt #:    99  of   122
     total cpu time spent up to now is        3.9 secs

     Computing kpt #:   100  of   122
     total cpu time spent up to now is        3.9 secs

     Computing kpt #:   101  of   122
     total cpu time spent up to now is        4.0 secs

     Computing kpt #:   102  of   122
     total cpu time spent up to now is        4.0 secs

     Computing kpt #:   103  of   122
     total cpu time spent up to now is        4.0 secs

     Computing kpt #:   104  of   122
     total cpu time spent up to now is        4.0 secs

     Computing kpt #:   105  of   122
     total cpu time spent up to now is        4.1 secs

     Computing kpt #:   106  of   122
     total cpu time spent up to now is        4.1 secs

     Computing kpt #:   107  of   122
     total cpu time spent up to now is        4.1 secs

     Computing kpt #:   108  of   122
     total cpu time spent up to now is        4.2 secs

     Computing kpt #:   109  of   122
     total cpu time spent up to now is        4.2 secs

     Computing kpt #:   110  of   122
     total cpu time spent up to now is        4.2 secs

     Computing kpt #:   111  of   122
     total cpu time spent up to now is        4.3 secs

     Computing kpt #:   112  of   122
     total cpu time spent up to now is        4.3 secs

     Computing kpt #:   113  of   122
     total cpu time spent up to now is        4.3 secs

     Computing kpt #:   114  of   122
     total cpu time spent up to now is        4.4 secs

     Computing kpt #:   115  of   122
     total cpu time spent up to now is        4.4 secs

     Computing kpt #:   116  of   122
     total cpu time spent up to now is        4.4 secs

     Computing kpt #:   117  of   122
     total cpu time spent up to now is        4.5 secs

     Computing kpt #:   118  of   122
     total cpu time spent up to now is        4.5 secs

     Computing kpt #:   119  of   122
     total cpu time spent up to now is        4.5 secs

     Computing kpt #:   120  of   122
     total cpu time spent up to now is        4.6 secs

     Computing kpt #:   121  of   122
     total cpu time spent up to now is        4.6 secs

     Computing kpt #:   122  of   122
     total cpu time spent up to now is        4.6 secs

     ethr =  5.00E-12,  avg # of iterations = 49.3

     total cpu time spent up to now is        4.6 secs

     End of band structure calculation

          k = 0.0000 0.0000 0.0000 (   725 PWs)   bands (ev):

    -5.6941   6.3959   6.3959   6.3959   8.9655   8.9655   8.9655   9.9672
    14.1369  14.1369  14.4309  17.7178

          k =-0.0354-0.0000 0.0000 (   725 PWs)   bands (ev):

    -5.6829   6.3236   6.3476   6.3476   8.9379   9.0274   9.0274  10.0378
    14.0464  14.1492  14.4803  17.7371

          k =-0.0707-0.0000 0.0000 (   729 PWs)   bands (ev):

    -5.6496   6.1229   6.2155   6.2155   8.8584   9.2005   9.2005  10.2300
    13.8041  14.1860  14.6252  17.7947

          k =-0.1061-0.0000 0.0000 (   733 PWs)   bands (ev):

    -5.5941   5.8282   6.0265   6.0265   8.7357   9.4575   9.4575  10.4957
    13.4781  14.2474  14.8567  17.8905

          k =-0.1414-0.0000 0.0000 (   733 PWs)   bands (ev):

    -5.5165   5.4721   5.8059   5.8059   8.5808   9.7730   9.7730  10.7681
    13.1523  14.3333  15.1631  18.0242

          k =-0.1768 0.0000 0.0000 (   729 PWs)   bands (ev):

    -5.4169   5.0777   5.5713   5.5713   8.4054  10.1289  10.1289  10.9468
    12.9384  14.4439  15.5319  18.1951

          k =-0.2121-0.0000 0.0000 (   729 PWs)   bands (ev):

    -5.2954   4.6592   5.3340   5.3340   8.2192  10.5131  10.5131  10.9148
    12.9614  14.5788  15.9521  18.4019

          k =-0.2475 0.0000-0.0000 (   737 PWs)   bands (ev):

    -5.1523   4.2255   5.1014   5.1014   8.0307  10.6698  10.9180  10.9180
    13.2277  14.7382  16.4136  18.6420

          k =-0.2828-0.0000 0.0000 (   725 PWs)   bands (ev):

    -4.9877   3.7823   4.8779   4.8779   7.8463  10.3138  11.3388  11.3388
    13.6387  14.9221  16.9072  18.9115

          k =-0.3182-0.0000 0.0000 (   729 PWs)   bands (ev):

    -4.8019   3.3328   4.6666   4.6666   7.6710   9.9210  11.7715  11.7715
    14.1210  15.1301  17.4243  19.2020

          k =-0.3536 0.0000 0.0000 (   729 PWs)   bands (ev):

    -4.5951   2.8798   4.4698   4.4698   7.5087   9.5267  12.2140  12.2140
    14.6396  15.3625  17.9552  19.4990

          k =-0.3889-0.0000 0.0000 (   729 PWs)   bands (ev):

    -4.3678   2.4251   4.2888   4.2888   7.3625   9.1475  12.6646  12.6646
    15.1766  15.6192  18.4883  19.7736

          k =-0.4243-0.0000 0.0000 (   725 PWs)   bands (ev):

    -4.1203   1.9703   4.1248   4.1248   7.2349   8.7922  13.1220  13.1220
    15.7216  15.9001  19.0084  19.9721

          k =-0.4596 0.0000-0.0000 (   725 PWs)   bands (ev):

    -3.8531   1.5171   3.9787   3.9787   7.1278   8.4652  13.5856  13.5856
    16.2051  16.2673  19.4934  20.0156

          k =-0.4950 0.0000-0.0000 (   733 PWs)   bands (ev):

    -3.5667   1.0669   3.8510   3.8510   7.0429   8.1692  14.0546  14.0546
    16.5335  16.8082  19.8547  19.8547

          k =-0.5303-0.0000 0.0000 (   733 PWs)   bands (ev):

    -3.2616   0.6214   3.7423   3.7423   6.9816   7.9054  14.5287  14.5287
    16.8863  17.3393  19.5256  19.5256

          k =-0.5657-0.0000 0.0000 (   749 PWs)   bands (ev):

    -2.9386   0.1820   3.6528   3.6528   6.9450   7.6740  15.0067  15.0067
    17.2629  17.8564  19.0990  19.0990

          k =-0.6010-0.0000 0.0000 (   745 PWs)   bands (ev):

    -2.5984  -0.2496   3.5830   3.5830   6.9347   7.4755  15.4866  15.4866
    17.6631  18.3550  18.6285  18.6285

          k =-0.6364-0.0000 0.0000 (   740 PWs)   bands (ev):

    -2.2418  -0.6719   3.5330   3.5330   6.9515   7.3091  15.9620  15.9620
    18.0868  18.1474  18.1474  18.8297

          k =-0.6718-0.0000 0.0000 (   740 PWs)   bands (ev):

    -1.8697  -1.0836   3.5030   3.5030   6.9964   7.1743  16.4060  16.4060
    17.6956  17.6956  18.5338  19.2731

          k =-0.7071 0.0000 0.0000 (   740 PWs)   bands (ev):

    -1.4833  -1.4833   3.4930   3.4930   7.0704   7.0704  16.6564  16.6564
    17.4421  17.4421  19.0038  19.0038

          k =-0.7071 0.0088 0.0088 (   740 PWs)   bands (ev):

    -1.4838  -1.4818   3.4832   3.4941   7.0717   7.0847  16.6397  16.6481
    17.4214  17.4241  19.0215  19.0215

          k =-0.7071 0.0177 0.0177 (   740 PWs)   bands (ev):

    -1.4854  -1.4773   3.4544   3.4974   7.0755   7.1271  16.5911  16.6236
    17.3616  17.3725  19.0722  19.0731

          k =-0.7071 0.0265 0.0265 (   740 PWs)   bands (ev):

    -1.4882  -1.4698   3.4080   3.5030   7.0820   7.1962  16.5143  16.5837
    17.2688  17.2929  19.1502  19.1547

          k =-0.7071 0.0354 0.0354 (   736 PWs)   bands (ev):

    -1.4922  -1.4594   3.3463   3.5108   7.0910   7.2900  16.4145  16.5296
    17.1504  17.1920  19.2489  19.2614

          k =-0.7071 0.0442 0.0442 (   736 PWs)   bands (ev):

    -1.4975  -1.4459   3.2718   3.5208   7.1026   7.4058  16.2967  16.4627
    17.0133  17.0757  19.3624  19.3880

          k =-0.7071 0.0530 0.0530 (   736 PWs)   bands (ev):

    -1.5043  -1.4294   3.1872   3.5331   7.1168   7.5411  16.1651  16.3845
    16.8628  16.9485  19.4861  19.5301

          k =-0.7071 0.0619 0.0619 (   742 PWs)   bands (ev):

    -1.5128  -1.4100   3.0951   3.5475   7.1335   7.6934  16.0233  16.2967
    16.7030  16.8136  19.6167  19.6840

          k =-0.7071 0.0707 0.0707 (   742 PWs)   bands (ev):

    -1.5231  -1.3876   2.9980   3.5642   7.1528   7.8606  15.8741  16.2008
    16.5371  16.6736  19.7520  19.8470

          k =-0.7071 0.0795 0.0795 (   734 PWs)   bands (ev):

    -1.5356  -1.3622   2.8980   3.5830   7.1745   8.0409  15.7196  16.0981
    16.3674  16.5302  19.8901  20.0171

          k =-0.7071 0.0884 0.0884 (   736 PWs)   bands (ev):

    -1.5506  -1.3338   2.7969   3.6040   7.1988   8.2324  15.5613  15.9896
    16.1948  16.3845  20.0298  20.1922

          k =-0.7071 0.0972 0.0972 (   736 PWs)   bands (ev):

    -1.5682  -1.3024   2.6965   3.6271   7.2256   8.4337  15.4005  15.8765
    16.0211  16.2375  20.1702  20.3711

          k =-0.7071 0.1061 0.1061 (   738 PWs)   bands (ev):

    -1.5888  -1.2681   2.5981   3.6523   7.2549   8.6437  15.2380  15.7598
    15.8469  16.0900  20.3106  20.5211

          k =-0.7071 0.1149 0.1149 (   738 PWs)   bands (ev):

    -1.6127  -1.2308   2.5031   3.6797   7.2866   8.8614  15.0748  15.6401
    15.6730  15.9424  20.4506  20.6314

          k =-0.7071 0.1237 0.1237 (   734 PWs)   bands (ev):

    -1.6402  -1.1905   2.4124   3.7091   7.3207   9.0860  14.9112  15.4999
    15.5181  15.7955  20.5896  20.7426

          k =-0.7071 0.1326 0.1326 (   734 PWs)   bands (ev):

    -1.6717  -1.1472   2.3272   3.7406   7.3573   9.3167  14.7478  15.3280
    15.3944  15.6493  20.7276  20.8538

          k =-0.7071 0.1414 0.1414 (   736 PWs)   bands (ev):

    -1.7073  -1.1010   2.2481   3.7741   7.3961   9.5529  14.5849  15.1577
    15.2696  15.5042  20.8640  20.9640

          k =-0.7071 0.1503 0.1503 (   734 PWs)   bands (ev):

    -1.7474  -1.0518   2.1758   3.8096   7.4373   9.7939  14.4229  14.9893
    15.1440  15.3606  20.9991  21.0715

          k =-0.7071 0.1591 0.1591 (   734 PWs)   bands (ev):

    -1.7921  -0.9997   2.1110   3.8470   7.4809  10.0393  14.2619  14.8230
    15.0181  15.2186  21.1326  21.1742

          k =-0.7071 0.1679 0.1679 (   730 PWs)   bands (ev):

    -1.8416  -0.9446   2.0540   3.8864   7.5267  10.2885  14.1022  14.6593
    14.8921  15.0786  21.2644  21.2680

          k =-0.7071 0.1768 0.1768 (   724 PWs)   bands (ev):

    -1.8958  -0.8866   2.0052   3.9276   7.5747  10.5412  13.9440  14.4985
    14.7664  14.9407  21.3456  21.3946

          k =-0.5303 0.5303 0.0000 (   724 PWs)   bands (ev):

    -1.8958  -0.8866   2.0052   3.9276   7.5747  10.5412  13.9440  14.4985
    14.7664  14.9407  21.3456  21.3946

          k =-0.5038 0.5038-0.0000 (   730 PWs)   bands (ev):

    -2.0865  -0.6950   1.9094   4.0621   7.7312  11.3109  13.4795  14.0383
    14.3936  14.5412  21.3359  21.7750

          k =-0.4773 0.4773-0.0000 (   730 PWs)   bands (ev):

    -2.3154  -0.4771   1.8886   4.2115   7.9053  12.0663  13.0324  13.6403
    14.0318  14.1662  20.9804  21.5752

          k =-0.4508 0.4508-0.0000 (   732 PWs)   bands (ev):

    -2.5736  -0.2332   1.9370   4.3744   8.0947  12.5971  12.6048  13.5087
    13.6864  13.8193  20.5587  21.1470

          k =-0.4243 0.4243-0.0000 (   732 PWs)   bands (ev):

    -2.8511   0.0364   2.0462   4.5483   8.2964  12.1980  12.4846  13.3621
    13.5042  14.0543  20.1423  20.7497

          k =-0.3977 0.3977 0.0000 (   732 PWs)   bands (ev):

    -3.1379   0.3316   2.2073   4.7309   8.5060  11.8133  12.1528  13.0637
    13.2243  14.8391  19.7447  20.3961

          k =-0.3712 0.3712 0.0000 (   746 PWs)   bands (ev):

    -3.4261   0.6518   2.4124   4.9190   8.7179  11.4512  11.8028  12.7966
    12.9830  15.6370  19.3688  20.1083

          k =-0.3447 0.3447 0.0000 (   742 PWs)   bands (ev):

    -3.7089   0.9968   2.6550   5.1092   8.9244  11.1125  11.4639  12.5672
    12.7845  16.3673  19.0049  19.4570

          k =-0.3182 0.3182-0.0000 (   742 PWs)   bands (ev):

    -3.9816   1.3659   2.9294   5.2973   9.1155  10.7977  11.1430  12.3823
    12.6324  16.9259  18.4598  18.7865

          k =-0.2917 0.2917-0.0000 (   734 PWs)   bands (ev):

    -4.2404   1.7585   3.2308   5.4793   9.2796  10.5072  10.8426  12.2489
    12.5307  17.2020  17.6216  18.4664

          k =-0.2652 0.2652 0.0000 (   732 PWs)   bands (ev):

    -4.4825   2.1737   3.5546   5.6507   9.4051  10.2411  10.5633  12.1700
    12.4829  16.7871  17.1988  18.2104

          k =-0.2386 0.2386 0.0000 (   740 PWs)   bands (ev):

    -4.7058   2.6104   3.8961   5.8075   9.4843   9.9997  10.3051  12.1387
    12.4917  15.9958  17.0158  17.9946

          k =-0.2121 0.2121 0.0000 (   748 PWs)   bands (ev):

    -4.9086   3.0669   4.2505   5.9464   9.5171   9.7833  10.0678  12.1292
    12.5586  15.2741  16.7299  17.8186

          k =-0.1856 0.1856 0.0000 (   749 PWs)   bands (ev):

    -5.0898   3.5412   4.6119   6.0654   9.5108   9.5921   9.8507  12.0870
    12.6828  14.6666  16.3812  17.6846

          k =-0.1591 0.1591-0.0000 (   741 PWs)   bands (ev):

    -5.2483   4.0300   4.9732   6.1638   9.4261   9.4759   9.6531  11.9315
    12.8608  14.2387  15.9968  17.5949

          k =-0.1326 0.1326 0.0000 (   731 PWs)   bands (ev):

    -5.3835   4.5278   5.3251   6.2421   9.2855   9.4217   9.4744  11.6105
    13.0855  14.0288  15.6033  17.5512

          k =-0.1061 0.1061 0.0000 (   735 PWs)   bands (ev):

    -5.4948   5.0258   5.6556   6.3017   9.1704   9.3149   9.3528  11.1685
    13.3441  13.9859  15.2293  17.5518

          k =-0.0795 0.0795-0.0000 (   731 PWs)   bands (ev):

    -5.5818   5.5077   5.9490   6.3449   9.0808   9.1769   9.2668  10.7019
    13.6171  14.0228  14.9026  17.5888

          k =-0.0530 0.0530 0.0000 (   731 PWs)   bands (ev):

    -5.6441   5.9421   6.1852   6.3739   9.0167   9.0660   9.1551  10.3037
    13.8729  14.0785  14.6482  17.6455

          k =-0.0265 0.0265-0.0000 (   725 PWs)   bands (ev):

    -5.6815   6.2687   6.3410   6.3905   8.9783   8.9919   9.0288  10.0500
    14.0643  14.1213  14.4864  17.6970

          k = 0.0000 0.0000 0.0000 (   725 PWs)   bands (ev):

    -5.6941   6.3959   6.3959   6.3959   8.9655   8.9655   8.9655   9.9672
    14.1369  14.1369  14.4309  17.7178

          k =-0.0177 0.0177 0.0177 (   725 PWs)   bands (ev):

    -5.6857   6.2990   6.3813   6.3813   8.9868   8.9868   8.9922  10.0227
    14.1071  14.1071  14.4680  17.6826

          k =-0.0354 0.0354 0.0354 (   731 PWs)   bands (ev):

    -5.6607   6.0385   6.3393   6.3393   9.0355   9.0482   9.0482  10.1966
    14.0248  14.0248  14.5770  17.5847

          k =-0.0530 0.0530 0.0530 (   731 PWs)   bands (ev):

    -5.6191   5.6724   6.2746   6.2746   9.0449   9.1435   9.1435  10.4848
    13.9071  13.9071  14.7507  17.4442

          k =-0.0707 0.0707 0.0707 (   731 PWs)   bands (ev):

    -5.5611   5.2466   6.1932   6.1932   9.0114   9.2636   9.2636  10.8547
    13.7748  13.7748  14.9753  17.2887

          k =-0.0884 0.0884 0.0884 (   734 PWs)   bands (ev):

    -5.4867   4.7892   6.1011   6.1011   8.9472   9.3980   9.3980  11.2711
    13.6476  13.6476  15.2262  17.1539

          k =-0.1061 0.1061 0.1061 (   736 PWs)   bands (ev):

    -5.3963   4.3166   6.0033   6.0033   8.8644   9.5357   9.5357  11.7102
    13.5426  13.5426  15.4572  17.0928

          k =-0.1237 0.1237 0.1237 (   730 PWs)   bands (ev):

    -5.2900   3.8390   5.9039   5.9039   8.7719   9.6656   9.6656  12.1578
    13.4751  13.4751  15.5998  17.1774

          k =-0.1414 0.1414 0.1414 (   733 PWs)   bands (ev):

    -5.1684   3.3628   5.8060   5.8060   8.6754   9.7772   9.7772  12.6048
    13.4577  13.4577  15.6177  17.4452

          k =-0.1591 0.1591 0.1591 (   733 PWs)   bands (ev):

    -5.0320   2.8927   5.7120   5.7120   8.5792   9.8624   9.8624  13.0437
    13.5007  13.5007  15.5503  17.8581

          k =-0.1768 0.1768 0.1768 (   745 PWs)   bands (ev):

    -4.8814   2.4320   5.6232   5.6232   8.4862   9.9166   9.9166  13.4642
    13.6091  13.6091  15.4573  18.3591

          k =-0.1945 0.1945 0.1945 (   751 PWs)   bands (ev):

    -4.7178   1.9839   5.5412   5.5412   8.3984   9.9403   9.9403  13.7834
    13.7834  13.8460  15.3894  18.9085

          k =-0.2121 0.2121 0.2121 (   748 PWs)   bands (ev):

    -4.5424   1.5512   5.4666   5.4666   8.3174   9.9382   9.9382  14.0193
    14.0193  14.1465  15.4045  19.4745

          k =-0.2298 0.2298 0.2298 (   751 PWs)   bands (ev):

    -4.3573   1.1371   5.4000   5.4000   8.2443   9.9170   9.9170  14.3100
    14.3100  14.3118  15.5645  20.0169

          k =-0.2475 0.2475 0.2475 (   751 PWs)   bands (ev):

    -4.1654   0.7452   5.3419   5.3419   8.1798   9.8842   9.8842  14.3493
    14.6477  14.6477  15.8658  20.4634

          k =-0.2652 0.2652 0.2652 (   748 PWs)   bands (ev):

    -3.9708   0.3806   5.2925   5.2925   8.1246   9.8463   9.8463  14.3212
    15.0254  15.0254  16.2468  20.2762

          k =-0.2828 0.2828 0.2828 (   745 PWs)   bands (ev):

    -3.7802   0.0501   5.2519   5.2519   8.0790   9.8088   9.8088  14.2725
    15.4359  15.4359  16.6603  19.7138

          k =-0.3005 0.3005 0.3005 (   739 PWs)   bands (ev):

    -3.6033  -0.2359   5.2203   5.2203   8.0433   9.7759   9.7759  14.2241
    15.8722  15.8722  17.0770  19.1522

          k =-0.3182 0.3182 0.3182 (   736 PWs)   bands (ev):

    -3.4546  -0.4627   5.1977   5.1977   8.0177   9.7503   9.7503  14.1854
    16.3233  16.3233  17.4677  18.6091

          k =-0.3359 0.3359 0.3359 (   748 PWs)   bands (ev):

    -3.3529  -0.6114   5.1841   5.1841   8.0022   9.7341   9.7341  14.1608
    16.7575  16.7575  17.7786  18.1189

          k =-0.3536 0.3536 0.3536 (   754 PWs)   bands (ev):

    -3.3163  -0.6636   5.1795   5.1795   7.9970   9.7286   9.7286  14.1523
    17.0041  17.0041  17.8533  17.8533

          k =-0.3712 0.3536 0.3359 (   746 PWs)   bands (ev):

    -3.3107  -0.6606   5.1271   5.1690   8.0454   9.7188   9.7507  14.1786
    16.8303  16.9451  17.8705  17.8868

          k =-0.3889 0.3536 0.3182 (   738 PWs)   bands (ev):

    -3.2941  -0.6514   4.9812   5.1373   8.1764   9.6911   9.8191  14.2531
    16.4878  16.7985  17.8836  17.9636

          k =-0.4066 0.3536 0.3005 (   736 PWs)   bands (ev):

    -3.2664  -0.6366   4.7682   5.0846   8.3579   9.6504   9.9400  14.3625
    16.1084  16.6163  17.9027  18.0520

          k =-0.4243 0.3536 0.2828 (   738 PWs)   bands (ev):

    -3.2276  -0.6165   4.5137   5.0111   8.5565   9.6036  10.1215  14.4823
    15.7231  16.4427  17.9289  18.1400

          k =-0.4419 0.3536 0.2652 (   736 PWs)   bands (ev):

    -3.1779  -0.5921   4.2374   4.9174   8.7482   9.5578  10.3687  14.5740
    15.3415  16.3222  17.9621  18.2285

          k =-0.4596 0.3536 0.2475 (   736 PWs)   bands (ev):

    -3.1174  -0.5644   3.9526   4.8044   8.9221   9.5193  10.6796  14.5906
    14.9669  16.2995  18.0024  18.3226

          k =-0.4773 0.3536 0.2298 (   738 PWs)   bands (ev):

    -3.0462  -0.5351   3.6689   4.6735   9.0788   9.4932  11.0453  14.5071
    14.6011  16.3940  18.0494  18.4292

          k =-0.4950 0.3536 0.2121 (   738 PWs)   bands (ev):

    -2.9643  -0.5062   3.3935   4.5266   9.2239   9.4830  11.4547  14.2451
    14.3394  16.5797  18.1031  18.5571

          k =-0.5127 0.3536 0.1945 (   736 PWs)   bands (ev):

    -2.8721  -0.4805   3.1327   4.3661   9.3632   9.4909  11.8974  13.8998
    14.1195  16.8116  18.1630  18.7173

          k =-0.5303 0.3536 0.1768 (   740 PWs)   bands (ev):

    -2.7698  -0.4615   2.8922   4.1945   9.5017   9.5179  12.3650  13.5656
    13.8717  17.0498  18.2292  18.9222

          k =-0.5480 0.3536 0.1591 (   730 PWs)   bands (ev):

    -2.6576  -0.4534   2.6780   4.0146   9.5644   9.6426  12.8505  13.2443
    13.6104  17.2649  18.3017  19.1828

          k =-0.5657 0.3536 0.1414 (   732 PWs)   bands (ev):

    -2.5359  -0.4612   2.4959   3.8291   9.6298   9.7879  12.9299  13.3439
    13.3551  17.4393  18.3803  19.5026

          k =-0.5834 0.3536 0.1237 (   732 PWs)   bands (ev):

    -2.4053  -0.4895   2.3515   3.6408   9.7136   9.9385  12.6336  13.0774
    13.8640  17.5675  18.4657  19.8749

          k =-0.6010 0.3536 0.1061 (   732 PWs)   bands (ev):

    -2.2661  -0.5422   2.2490   3.4523   9.8148  10.0949  12.3503  12.8141
    14.3786  17.6506  18.5591  20.2827

          k =-0.6187 0.3536 0.0884 (   734 PWs)   bands (ev):

    -2.1192  -0.6211   2.1906   3.2661   9.9324  10.2560  12.0825  12.5564
    14.8926  17.6908  18.6629  20.6919

          k =-0.6364 0.3536 0.0707 (   730 PWs)   bands (ev):

    -1.9655  -0.7251   2.1754   3.0849  10.0650  10.4192  11.8339  12.3064
    15.3989  17.6874  18.7810  20.9664

          k =-0.6541 0.3536 0.0530 (   734 PWs)   bands (ev):

    -1.8061  -0.8509   2.2000   2.9112  10.2104  10.5765  11.6126  12.0663
    15.8873  17.6358  18.9205  20.7611

          k =-0.6718 0.3536 0.0354 (   734 PWs)   bands (ev):

    -1.6425  -0.9938   2.2597   2.7476  10.3657  10.7052  11.4421  11.8393
    16.3439  17.5267  19.0923  20.3446

          k =-0.6894 0.3536 0.0177 (   734 PWs)   bands (ev):

    -1.4766  -1.1487   2.3490   2.5971  10.5241  10.7477  11.3800  11.6324
    16.7508  17.3479  19.3108  19.9393

          k =-0.7071 0.3536 0.0000 (   724 PWs)   bands (ev):

    -1.3109  -1.3109   2.4630   2.4630  10.6678  10.6678  11.4631  11.4631
    17.0895  17.0895  19.5911  19.5911

          k =-0.7071 0.3359 0.0000 (   730 PWs)   bands (ev):

    -1.3121  -1.3121   2.4680   2.4680  10.5678  10.5678  11.5684  11.5684
    17.0893  17.0893  19.5888  19.5888

          k =-0.7071 0.3182 0.0000 (   734 PWs)   bands (ev):

    -1.3156  -1.3156   2.4832   2.4832  10.3507  10.3507  11.8018  11.8018
    17.0887  17.0887  19.5822  19.5822

          k =-0.7071 0.3005-0.0000 (   734 PWs)   bands (ev):

    -1.3213  -1.3213   2.5082   2.5082  10.0975  10.0975  12.0822  12.0822
    17.0878  17.0878  19.5714  19.5714

          k =-0.7071 0.2828 0.0000 (   734 PWs)   bands (ev):

    -1.3290  -1.3290   2.5427   2.5427   9.8350   9.8350  12.3829  12.3829
    17.0867  17.0867  19.5569  19.5569

          k =-0.7071 0.2652 0.0000 (   730 PWs)   bands (ev):

    -1.3385  -1.3385   2.5862   2.5862   9.5723   9.5723  12.6949  12.6949
    17.0854  17.0854  19.5394  19.5394

          k =-0.7071 0.2475-0.0000 (   738 PWs)   bands (ev):

    -1.3495  -1.3495   2.6380   2.6380   9.3135   9.3135  13.0139  13.0139
    17.0840  17.0840  19.5189  19.5189

          k =-0.7071 0.2298 0.0000 (   738 PWs)   bands (ev):

    -1.3616  -1.3616   2.6975   2.6975   9.0609   9.0609  13.3381  13.3381
    17.0827  17.0827  19.4964  19.4964

          k =-0.7071 0.2121-0.0000 (   738 PWs)   bands (ev):

    -1.3745  -1.3745   2.7636   2.7636   8.8160   8.8160  13.6658  13.6658
    17.0818  17.0818  19.4725  19.4725

          k =-0.7071 0.1945 0.0000 (   738 PWs)   bands (ev):

    -1.3879  -1.3879   2.8354   2.8354   8.5801   8.5801  13.9959  13.9959
    17.0814  17.0814  19.4475  19.4475

          k =-0.7071 0.1768-0.0000 (   730 PWs)   bands (ev):

    -1.4015  -1.4015   2.9115   2.9115   8.3546   8.3546  14.3270  14.3270
    17.0820  17.0820  19.4220  19.4220

          k =-0.7071 0.1591-0.0000 (   734 PWs)   bands (ev):

    -1.4148  -1.4148   2.9906   2.9906   8.1408   8.1408  14.6575  14.6575
    17.0839  17.0839  19.3961  19.3961

          k =-0.7071 0.1414-0.0000 (   734 PWs)   bands (ev):

    -1.4276  -1.4276   3.0710   3.0710   7.9403   7.9403  14.9853  14.9853
    17.0882  17.0882  19.3699  19.3699

          k =-0.7071 0.1237-0.0000 (   734 PWs)   bands (ev):

    -1.4396  -1.4396   3.1509   3.1509   7.7549   7.7549  15.3076  15.3076
    17.0961  17.0961  19.3429  19.3429

          k =-0.7071 0.1061 0.0000 (   732 PWs)   bands (ev):

    -1.4505  -1.4505   3.2280   3.2280   7.5865   7.5865  15.6196  15.6196
    17.1097  17.1097  19.3142  19.3142

          k =-0.7071 0.0884 0.0000 (   736 PWs)   bands (ev):

    -1.4601  -1.4601   3.3000   3.3000   7.4375   7.4375  15.9140  15.9140
    17.1328  17.1328  19.2814  19.2814

          k =-0.7071 0.0707-0.0000 (   736 PWs)   bands (ev):

    -1.4682  -1.4682   3.3643   3.3643   7.3104   7.3104  16.1786  16.1786
    17.1717  17.1717  19.2405  19.2405

          k =-0.7071 0.0530 0.0000 (   740 PWs)   bands (ev):

    -1.4747  -1.4747   3.4181   3.4181   7.2078   7.2078  16.3955  16.3955
    17.2344  17.2344  19.1848  19.1848

          k =-0.7071 0.0354 0.0000 (   740 PWs)   bands (ev):

    -1.4795  -1.4795   3.4588   3.4588   7.1323   7.1323  16.5472  16.5472
    17.3208  17.3208  19.1112  19.1112

          k =-0.7071 0.0177 0.0000 (   740 PWs)   bands (ev):

    -1.4823  -1.4823   3.4843   3.4843   7.0860   7.0860  16.6307  16.6307
    17.4055  17.4055  19.0369  19.0369

          k =-0.7071 0.0000 0.0000 (   740 PWs)   bands (ev):

    -1.4833  -1.4833   3.4930   3.4930   7.0704   7.0704  16.6564  16.6564
    17.4421  17.4421  19.0038  19.0038

     Writing all to output data dir ./out/silicon.save/ :
     XML data file, pseudopotentials, collected wavefunctions

     init_run     :      0.04s CPU      0.05s WALL (       1 calls)
     electrons    :      4.30s CPU      4.50s WALL (       1 calls)

     Called by init_run:
     wfcinit      :      0.00s CPU      0.00s WALL (       1 calls)
     wfcinit:atom :      0.00s CPU      0.00s WALL (     122 calls)
     wfcinit:wfcr :      0.10s CPU      0.11s WALL (     122 calls)
     potinit      :      0.00s CPU      0.00s WALL (       1 calls)
     hinit0       :      0.03s CPU      0.03s WALL (       1 calls)

     Called by electrons:
     c_bands      :      4.30s CPU      4.50s WALL (       1 calls)
     v_of_rho     :      0.00s CPU      0.00s WALL (       1 calls)
     v_h          :      0.00s CPU      0.00s WALL (       1 calls)
     v_xc         :      0.00s CPU      0.00s WALL (       1 calls)
     newd         :      0.00s CPU      0.01s WALL (       1 calls)

     Called by c_bands:
     init_us_2    :      0.00s CPU      0.00s WALL (     122 calls)
     cegterg      :      4.17s CPU      4.36s WALL (     351 calls)

     Called by sum_band:

     Called by *egterg:
     cdiaghg      :      0.70s CPU      0.71s WALL (    6139 calls)
     cegterg:over :      0.29s CPU      0.30s WALL (    6017 calls)
     cegterg:upda :      0.08s CPU      0.08s WALL (    6017 calls)
     cegterg:last :      0.13s CPU      0.14s WALL (    3702 calls)
     h_psi        :      2.87s CPU      3.01s WALL (    6490 calls)
     s_psi        :      0.09s CPU      0.10s WALL (    6490 calls)
     g_psi        :      0.01s CPU      0.01s WALL (    6017 calls)

     Called by h_psi:
     h_psi:calbec :      0.19s CPU      0.20s WALL (    6490 calls)
     vloc_psi     :      2.56s CPU      2.68s WALL (    6490 calls)
                                        0.00s GPU  (    6490 calls)
     add_vuspsi   :      0.10s CPU      0.11s WALL (    6490 calls)

     General routines
     calbec       :      0.19s CPU      0.20s WALL (    6490 calls)
     fft          :      0.00s CPU      0.00s WALL (      13 calls)
     ffts         :      0.00s CPU      0.00s WALL (       1 calls)
     fftw         :      2.25s CPU      2.34s WALL (   91268 calls)
     interpolate  :      0.00s CPU      0.00s WALL (       1 calls)
     davcio       :      0.00s CPU      0.00s WALL (     244 calls)

     Parallel routines

     PWSCF        :      4.45s CPU      4.75s WALL


   This run was terminated on:  12:22:45   7May2026            

=------------------------------------------------------------------------------=
   JOB DONE.
=------------------------------------------------------------------------------=
