
     Program BANDS v.7.5 starts on  7May2026 at 16:17:55 

     This program is part of the open-source Quantum ESPRESSO suite
     for quantum simulation of materials; please cite
         "P. Giannozzi et al., J. Phys.:Condens. Matter 21 395502 (2009);
         "P. Giannozzi et al., J. Phys.:Condens. Matter 29 465901 (2017);
         "P. Giannozzi et al., J. Chem. Phys. 152 154105 (2020);
          URL http://www.quantum-espresso.org", 
     in publications or presentations arising from this work. More details at
     http://www.quantum-espresso.org/quote

     Parallel version (MPI), running on     6 processors

     MPI processes distributed on     1 nodes
     R & G space division:  proc/nbgrp/npool/nimage =       6
     0 MiB available memory on the printing compute node when the environment starts


     Reading xml data from directory:

     ./out/silicon.save/

     IMPORTANT: XC functional enforced from input :
     Exchange-correlation= PBE
                           (   1   4   3   4   0   0   0)
     Any further DFT definition will be discarded
     Please, verify this is what you really want


     Parallelization info
     --------------------
     sticks:   dense  smooth     PW     G-vecs:    dense   smooth      PW
     Min         142      72     23                 2770      992     177
     Max         144      73     24                 2773      995     179
     Sum         859     433    139                16625     5961    1067

     Using Slab Decomposition

     Reading collected, re-writing distributed wavefunctions
     high-symmetry point:  0.0000 0.0000 0.0000   x coordinate   0.0000
     high-symmetry point: -0.7071 0.0000 0.0000   x coordinate   0.7071
     high-symmetry point: -0.7071 0.1768 0.1768   x coordinate   0.9571
     high-symmetry point: -0.5303 0.5303 0.0000   x coordinate   1.3901
     high-symmetry point:  0.0000 0.0000 0.0000   x coordinate   2.1401
     high-symmetry point: -0.3536 0.3536 0.3536   x coordinate   2.7525
     high-symmetry point: -0.7071 0.3536 0.0000   x coordinate   3.2525
     high-symmetry point: -0.7071 0.0000 0.0000   x coordinate   3.6060

     Plottable bands (eV) written to file silicon.band.gnu
     Bands written to file silicon.band

 **************************************************************************

                    xk=(   0.00000,   0.00000,   0.00000  )

     point group O_h (m-3m) 
     there are 10 classes
     the character table:

       E     8C3   3C2   6C4   6C2'  i     8S6   3s_h  6S4   6s_d 
A_1g   1.00  1.00  1.00  1.00  1.00  1.00  1.00  1.00  1.00  1.00
A_2g   1.00  1.00  1.00 -1.00 -1.00  1.00  1.00  1.00 -1.00 -1.00
E_g    2.00 -1.00  2.00  0.00  0.00  2.00 -1.00  2.00  0.00  0.00
T_1g   3.00  0.00 -1.00  1.00 -1.00  3.00  0.00 -1.00  1.00 -1.00
T_2g   3.00  0.00 -1.00 -1.00  1.00  3.00  0.00 -1.00 -1.00  1.00
A_1u   1.00  1.00  1.00  1.00  1.00 -1.00 -1.00 -1.00 -1.00 -1.00
A_2u   1.00  1.00  1.00 -1.00 -1.00 -1.00 -1.00 -1.00  1.00  1.00
E_u    2.00 -1.00  2.00  0.00  0.00 -2.00  1.00 -2.00  0.00  0.00
T_1u   3.00  0.00 -1.00  1.00 -1.00 -3.00  0.00  1.00 -1.00  1.00
T_2u   3.00  0.00 -1.00 -1.00  1.00 -3.00  0.00  1.00  1.00 -1.00

     the symmetry operations in each class and the name of the first element:

     E        1
                                                                 
     8C3     17   19   20   18   24   21   22   23
                                                                 
     3C2      2    4    3
                                                                 
     6C4      7    8   15   16   12   11
                                                                 
     6C2'     5    6   14   13   10    9
                                                                 
     i       25
                                                                 
     8S6     41   43   44   42   48   45   46   47
                                                                 
     3s_h    26   28   27
                                                                 
     6S4     31   32   39   40   36   35
                                                                 
     6s_d    29   30   38   37   34   33
                                                                 

     Band symmetry, O_h (m-3m)  point group:

     e(  1 -  1) =     -5.69405  eV     1   --> A_1g G_1   G_1+
     e(  2 -  4) =      6.39586  eV     3   --> T_2g G_25' G_5+
     e(  5 -  7) =      8.96549  eV     3   --> T_1u G_15  G_4-
     e(  8 -  8) =      9.96724  eV     1   --> A_2u G_2'  G_2-
     e(  9 - 10) =     14.13693  eV     2   --> E_u  G_12' G_3-
     e( 11 - 11) =     14.43091  eV     1   --> A_1g G_1   G_1+
     e( 12 - 12) =     17.71784  eV     1   -->   ?

 **************************************************************************

 **************************************************************************

                    xk=(  -0.35355,   0.00000,   0.00000  )

     point group C_4v (4mm) 
     there are  5 classes
     the character table:

       E     2C4   C2    2s_v  2s_d 
A_1    1.00  1.00  1.00  1.00  1.00
A_2    1.00  1.00  1.00 -1.00 -1.00
B_1    1.00 -1.00  1.00  1.00 -1.00
B_2    1.00 -1.00  1.00 -1.00  1.00
E      2.00  0.00 -2.00  0.00  0.00

     the symmetry operations in each class and the name of the first element:

     E        1
                                                                 
     2C4      3    4
                                                                 
     C2       2
                                                                 
     2s_v     5    6
                                                                 
     2s_d     7    8
                                                                 

     Band symmetry, C_4v (4mm)  point group:

     e(  1 -  1) =     -4.59514  eV     1   --> A_1  G_1 D_1   
     e(  2 -  2) =      2.87982  eV     1   --> B_2  G_4 D_2'  
     e(  3 -  4) =      4.46977  eV     2   --> E    G_5 D_5   
     e(  5 -  5) =      7.50872  eV     1   --> A_1  G_1 D_1   
     e(  6 -  6) =      9.52666  eV     1   --> B_2  G_4 D_2'  
     e(  7 -  8) =     12.21403  eV     2   --> E    G_5 D_5   
     e(  9 -  9) =     14.63958  eV     1   --> B_2  G_4 D_2'  
     e( 10 - 10) =     15.36253  eV     1   --> A_2  G_2 D_1'  
     e( 11 - 11) =     17.95515  eV     1   --> A_1  G_1 D_1   
     e( 12 - 12) =     19.49899  eV     1   -->   ?

 **************************************************************************

 **************************************************************************

                    xk=(  -0.70711,   0.00000,   0.00000  )

     zone border point and non-symmorphic group 
     symmetry decomposition not available

 **************************************************************************

 **************************************************************************

                    xk=(  -0.70711,   0.08839,   0.08839  )

     zone border point and non-symmorphic group 
     symmetry decomposition not available

 **************************************************************************

 **************************************************************************

                    xk=(  -0.70711,   0.17678,   0.17678  )

     zone border point and non-symmorphic group 
     symmetry decomposition not available

 **************************************************************************

 **************************************************************************

                    xk=(  -0.53033,   0.53033,   0.00000  )

     Band symmetry, C_2v (mm2)  point group:

     e(  1 -  1) =     -1.89578  eV     1   --> A_1  D_1  S_1  
     e(  2 -  2) =     -0.88661  eV     1   --> B_1  D_3  S_3  
     e(  3 -  3) =      2.00524  eV     1   --> A_1  D_1  S_1  
     e(  4 -  4) =      3.92761  eV     1   --> A_2  D_2  S_2  
     e(  5 -  5) =      7.57470  eV     1   --> B_1  D_3  S_3  
     e(  6 -  6) =     10.54118  eV     1   --> A_1  D_1  S_1  
     e(  7 -  7) =     13.94403  eV     1   --> B_2  D_4  S_4  
     e(  8 -  8) =     14.49846  eV     1   --> A_1  D_1  S_1  
     e(  9 -  9) =     14.76642  eV     1   --> B_1  D_3  S_3  
     e( 10 - 10) =     14.94072  eV     1   --> A_2  D_2  S_2  
     e( 11 - 11) =     21.34560  eV     1   --> B_1  D_3  S_3  
     e( 12 - 12) =     21.39462  eV     1   --> A_2  D_2  S_2  

 **************************************************************************

 **************************************************************************

                    xk=(  -0.26517,   0.26517,   0.00000  )

     Band symmetry, C_2v (mm2)  point group:

     e(  1 -  1) =     -4.48250  eV     1   --> A_1  D_1  S_1  
     e(  2 -  2) =      2.17370  eV     1   --> B_1  D_3  S_3  
     e(  3 -  3) =      3.55458  eV     1   --> A_1  D_1  S_1  
     e(  4 -  4) =      5.65068  eV     1   --> A_2  D_2  S_2  
     e(  5 -  5) =      9.40507  eV     1   --> B_1  D_3  S_3  
     e(  6 -  6) =     10.24108  eV     1   --> B_2  D_4  S_4  
     e(  7 -  7) =     10.56330  eV     1   --> A_1  D_1  S_1  
     e(  8 -  8) =     12.16997  eV     1   --> B_1  D_3  S_3  
     e(  9 -  9) =     12.48291  eV     1   --> A_2  D_2  S_2  
     e( 10 - 10) =     16.78706  eV     1   --> B_1  D_3  S_3  
     e( 11 - 11) =     17.19884  eV     1   --> A_1  D_1  S_1  
     e( 12 - 12) =     18.21041  eV     1   --> B_1  D_3  S_3  

 **************************************************************************

 **************************************************************************

                    xk=(   0.00000,   0.00000,   0.00000  )

     point group O_h (m-3m) 
     there are 10 classes
     the character table:

       E     8C3   3C2   6C4   6C2'  i     8S6   3s_h  6S4   6s_d 
A_1g   1.00  1.00  1.00  1.00  1.00  1.00  1.00  1.00  1.00  1.00
A_2g   1.00  1.00  1.00 -1.00 -1.00  1.00  1.00  1.00 -1.00 -1.00
E_g    2.00 -1.00  2.00  0.00  0.00  2.00 -1.00  2.00  0.00  0.00
T_1g   3.00  0.00 -1.00  1.00 -1.00  3.00  0.00 -1.00  1.00 -1.00
T_2g   3.00  0.00 -1.00 -1.00  1.00  3.00  0.00 -1.00 -1.00  1.00
A_1u   1.00  1.00  1.00  1.00  1.00 -1.00 -1.00 -1.00 -1.00 -1.00
A_2u   1.00  1.00  1.00 -1.00 -1.00 -1.00 -1.00 -1.00  1.00  1.00
E_u    2.00 -1.00  2.00  0.00  0.00 -2.00  1.00 -2.00  0.00  0.00
T_1u   3.00  0.00 -1.00  1.00 -1.00 -3.00  0.00  1.00 -1.00  1.00
T_2u   3.00  0.00 -1.00 -1.00  1.00 -3.00  0.00  1.00  1.00 -1.00

     the symmetry operations in each class and the name of the first element:

     E        1
                                                                 
     8C3     17   19   20   18   24   21   22   23
                                                                 
     3C2      2    4    3
                                                                 
     6C4      7    8   15   16   12   11
                                                                 
     6C2'     5    6   14   13   10    9
                                                                 
     i       25
                                                                 
     8S6     41   43   44   42   48   45   46   47
                                                                 
     3s_h    26   28   27
                                                                 
     6S4     31   32   39   40   36   35
                                                                 
     6s_d    29   30   38   37   34   33
                                                                 

     Band symmetry, O_h (m-3m)  point group:

     e(  1 -  1) =     -5.69405  eV     1   --> A_1g G_1   G_1+
     e(  2 -  4) =      6.39586  eV     3   --> T_2g G_25' G_5+
     e(  5 -  7) =      8.96549  eV     3   --> T_1u G_15  G_4-
     e(  8 -  8) =      9.96724  eV     1   --> A_2u G_2'  G_2-
     e(  9 - 10) =     14.13693  eV     2   --> E_u  G_12' G_3-
     e( 11 - 11) =     14.43091  eV     1   --> A_1g G_1   G_1+
     e( 12 - 12) =     17.71784  eV     1   -->   ?

 **************************************************************************

 **************************************************************************

                    xk=(  -0.17678,   0.17678,   0.17678  )

     point group C_3v (3m)  
     there are  3 classes
     the character table:

       E     2C3   3s_v 
A_1    1.00  1.00  1.00
A_2    1.00  1.00 -1.00
E      2.00 -1.00  0.00

     the symmetry operations in each class and the name of the first element:

     E        1
                                                                 
     2C3      2    3
                                                                 
     3s_v     4    5    6
                                                                 

     Band symmetry, C_3v (3m)   point group:

     e(  1 -  1) =     -4.88141  eV     1   --> A_1  L_1       
     e(  2 -  2) =      2.43203  eV     1   --> A_1  L_1       
     e(  3 -  4) =      5.62322  eV     2   --> E    L_3       
     e(  5 -  5) =      8.48615  eV     1   --> A_1  L_1       
     e(  6 -  7) =      9.91659  eV     2   --> E    L_3       
     e(  8 -  8) =     13.46420  eV     1   --> A_1  L_1       
     e(  9 - 10) =     13.60912  eV     2   --> E    L_3       
     e( 11 - 11) =     15.45735  eV     1   --> A_1  L_1       
     e( 12 - 12) =     18.35915  eV     1   --> A_1  L_1       

 **************************************************************************

 **************************************************************************

                    xk=(  -0.35355,   0.35355,   0.35355  )

     zone border point and non-symmorphic group 
     symmetry decomposition not available

 **************************************************************************

 **************************************************************************

                    xk=(  -0.53033,   0.35355,   0.17678  )

     zone border point and non-symmorphic group 
     symmetry decomposition not available

 **************************************************************************

 **************************************************************************

                    xk=(  -0.70711,   0.35355,   0.00000  )

     zone border point and non-symmorphic group 
     symmetry decomposition not available

 **************************************************************************

 **************************************************************************

                    xk=(  -0.70711,   0.17678,  -0.00000  )

     zone border point and non-symmorphic group 
     symmetry decomposition not available

 **************************************************************************

 **************************************************************************

                    xk=(  -0.70711,   0.00000,   0.00000  )

     zone border point and non-symmorphic group 
     symmetry decomposition not available

 **************************************************************************

     BANDS        :      0.18s CPU      0.20s WALL


   This run was terminated on:  16:17:55   7May2026            

=------------------------------------------------------------------------------=
   JOB DONE.
=------------------------------------------------------------------------------=
