
     Program PWSCF v.7.5 starts on 27Apr2026 at 14:19:25 

     This program is part of the open-source Quantum ESPRESSO suite
     for quantum simulation of materials; please cite
         "P. Giannozzi et al., J. Phys.:Condens. Matter 21 395502 (2009);
         "P. Giannozzi et al., J. Phys.:Condens. Matter 29 465901 (2017);
         "P. Giannozzi et al., J. Chem. Phys. 152 154105 (2020);
          URL http://www.quantum-espresso.org", 
     in publications or presentations arising from this work. More details at
     http://www.quantum-espresso.org/quote

     Parallel version (MPI), running on     6 processors

     MPI processes distributed on     1 nodes
     0 MiB available memory on the printing compute node when the environment starts

     Waiting for input...
     Reading input from standard input

     Current dimensions of program PWSCF are:
     Max number of different atomic species (ntypx) = 10
     Max number of k-points (npk) =  40000
     Max angular momentum in pseudopotentials (lmaxx) =  4

     Atomic positions and unit cell read from directory:
     ./out/silicon.save/

     Message from routine setup:
     using ibrav=0 with symmetry is DISCOURAGED, use correct ibrav instead

     R & G space division:  proc/nbgrp/npool/nimage =       6
     Subspace diagonalization in iterative solution of the eigenvalue problem:
     a serial algorithm will be used


     Parallelization info
     --------------------
     sticks:   dense  smooth     PW     G-vecs:    dense   smooth      PW
     Min         142      72     23                 2770      992     177
     Max         144      73     24                 2773      995     179
     Sum         859     433    139                16625     5961    1067

     Using Slab Decomposition



     bravais-lattice index     =            0
     lattice parameter (alat)  =       7.2125  a.u.
     unit-cell volume          =     265.3020 (a.u.)^3
     number of atoms/cell      =            2
     number of atomic types    =            1
     number of electrons       =         8.00
     number of Kohn-Sham states=           12
     kinetic-energy cutoff     =      30.0000  Ry
     charge density cutoff     =     240.0000  Ry
     Exchange-correlation= PBE
                           (   1   4   3   4   0   0   0)

     celldm(1)=   7.212489  celldm(2)=   0.000000  celldm(3)=   0.000000
     celldm(4)=   0.000000  celldm(5)=   0.000000  celldm(6)=   0.000000

     crystal axes: (cart. coord. in units of alat)
               a(1) = (  -0.707107   0.000000   0.707107 )  
               a(2) = (   0.000000   0.707107   0.707107 )  
               a(3) = (  -0.707107   0.707107   0.000000 )  

     reciprocal axes: (cart. coord. in units 2 pi/alat)
               b(1) = ( -0.707107 -0.707107  0.707107 )  
               b(2) = (  0.707107  0.707107  0.707107 )  
               b(3) = ( -0.707107  0.707107 -0.707107 )  


     PseudoPot. # 1 for Si read from file:
     ./pseudo/Si.pbe-n-rrkjus_psl.1.0.0.UPF
     MD5 check sum: 0b0bb1205258b0d07b9f9672cf965d36
     Pseudo is Ultrasoft + core correction, Zval =  4.0
     Generated using "atomic" code by A. Dal Corso  v.5.1
     Using radial grid of 1141 points,  6 beta functions with: 
                l(1) =   0
                l(2) =   0
                l(3) =   1
                l(4) =   1
                l(5) =   2
                l(6) =   2
     Q(r) pseudized with 0 coefficients 


     atomic species   valence    mass     pseudopotential
     Si                4.00    28.08550     Si( 1.00)

     48 Sym. Ops., with inversion, found (24 have fractional translation)


                                    s                        frac. trans.

      isym =  1     identity                                     

 cryst.   s( 1) = (     1          0          0      )
                  (     0          1          0      )
                  (     0          0          1      )

 cart.    s( 1) = (  1.0000000  0.0000000 -0.0000000 )
                  (  0.0000000  1.0000000  0.0000000 )
                  ( -0.0000000 -0.0000000  1.0000000 )


      isym =  2     180 deg rotation - cart. axis [0,0,1]        

 cryst.   s( 2) = (     0          1         -1      )
                  (     1          0         -1      )
                  (     0          0         -1      )

 cart.    s( 2) = ( -1.0000000 -0.0000000 -0.0000000 )
                  ( -0.0000000 -1.0000000  0.0000000 )
                  (  0.0000000  0.0000000  1.0000000 )


      isym =  3     180 deg rotation - cart. axis [0,1,0]        

 cryst.   s( 3) = (    -1          0          0      )
                  (    -1          0          1      )
                  (    -1          1          0      )

 cart.    s( 3) = ( -1.0000000  0.0000000  0.0000000 )
                  ( -0.0000000  1.0000000 -0.0000000 )
                  (  0.0000000 -0.0000000 -1.0000000 )


      isym =  4     180 deg rotation - cart. axis [1,0,0]        

 cryst.   s( 4) = (     0         -1          1      )
                  (     0         -1          0      )
                  (     1         -1          0      )

 cart.    s( 4) = (  1.0000000 -0.0000000  0.0000000 )
                  (  0.0000000 -1.0000000 -0.0000000 )
                  ( -0.0000000  0.0000000 -1.0000000 )


      isym =  5     180 deg rotation - cart. axis [1,1,0]        

 cryst.   s( 5) = (     0         -1          0      )    f =(  0.2500000 )
                  (    -1          0          0      )       (  0.2500000 )
                  (     0          0         -1      )       (  0.2500000 )

 cart.    s( 5) = (  0.0000000  1.0000000  0.0000000 )    f =( -0.3535534 )
                  (  1.0000000  0.0000000 -0.0000000 )       (  0.3535534 )
                  ( -0.0000000 -0.0000000 -1.0000000 )       (  0.3535534 )


      isym =  6     180 deg rotation - cart. axis [1,-1,0]       

 cryst.   s( 6) = (    -1          0          1      )    f =(  0.2500000 )
                  (     0         -1          1      )       (  0.2500000 )
                  (     0          0          1      )       (  0.2500000 )

 cart.    s( 6) = ( -0.0000000 -1.0000000  0.0000000 )    f =( -0.3535534 )
                  ( -1.0000000 -0.0000000 -0.0000000 )       (  0.3535534 )
                  (  0.0000000  0.0000000 -1.0000000 )       (  0.3535534 )


      isym =  7      90 deg rotation - cart. axis [0,0,-1]       

 cryst.   s( 7) = (     0          1          0      )    f =(  0.2500000 )
                  (     0          1         -1      )       (  0.2500000 )
                  (    -1          1          0      )       (  0.2500000 )

 cart.    s( 7) = ( -0.0000000  1.0000000 -0.0000000 )    f =( -0.3535534 )
                  ( -1.0000000  0.0000000  0.0000000 )       (  0.3535534 )
                  (  0.0000000 -0.0000000  1.0000000 )       (  0.3535534 )


      isym =  8      90 deg rotation - cart. axis [0,0,1]        

 cryst.   s( 8) = (     1          0         -1      )    f =(  0.2500000 )
                  (     1          0          0      )       (  0.2500000 )
                  (     1         -1          0      )       (  0.2500000 )

 cart.    s( 8) = (  0.0000000 -1.0000000 -0.0000000 )    f =( -0.3535534 )
                  (  1.0000000 -0.0000000  0.0000000 )       (  0.3535534 )
                  ( -0.0000000  0.0000000  1.0000000 )       (  0.3535534 )


      isym =  9     180 deg rotation - cart. axis [1,0,1]        

 cryst.   s( 9) = (    -1          0          0      )    f =(  0.2500000 )
                  (     0          0         -1      )       (  0.2500000 )
                  (     0         -1          0      )       (  0.2500000 )

 cart.    s( 9) = ( -0.0000000 -0.0000000  1.0000000 )    f =( -0.3535534 )
                  (  0.0000000 -1.0000000  0.0000000 )       (  0.3535534 )
                  (  1.0000000  0.0000000 -0.0000000 )       (  0.3535534 )


      isym = 10     180 deg rotation - cart. axis [-1,0,1]       

 cryst.   s(10) = (     1          0          0      )    f =(  0.2500000 )
                  (     1         -1          0      )       (  0.2500000 )
                  (     1          0         -1      )       (  0.2500000 )

 cart.    s(10) = (  0.0000000 -0.0000000 -1.0000000 )    f =( -0.3535534 )
                  ( -0.0000000 -1.0000000 -0.0000000 )       (  0.3535534 )
                  ( -1.0000000  0.0000000  0.0000000 )       (  0.3535534 )


      isym = 11      90 deg rotation - cart. axis [0,1,0]        

 cryst.   s(11) = (     0          1         -1      )    f =(  0.2500000 )
                  (    -1          1          0      )       (  0.2500000 )
                  (     0          1          0      )       (  0.2500000 )

 cart.    s(11) = (  0.0000000  0.0000000  1.0000000 )    f =( -0.3535534 )
                  ( -0.0000000  1.0000000  0.0000000 )       (  0.3535534 )
                  ( -1.0000000 -0.0000000 -0.0000000 )       (  0.3535534 )


      isym = 12      90 deg rotation - cart. axis [0,-1,0]       

 cryst.   s(12) = (     0         -1          1      )    f =(  0.2500000 )
                  (     0          0          1      )       (  0.2500000 )
                  (    -1          0          1      )       (  0.2500000 )

 cart.    s(12) = ( -0.0000000  0.0000000 -1.0000000 )    f =( -0.3535534 )
                  (  0.0000000  1.0000000 -0.0000000 )       (  0.3535534 )
                  (  1.0000000 -0.0000000  0.0000000 )       (  0.3535534 )


      isym = 13     180 deg rotation - cart. axis [0,1,1]        

 cryst.   s(13) = (    -1          1          0      )    f =(  0.2500000 )
                  (     0          1          0      )       (  0.2500000 )
                  (     0          1         -1      )       (  0.2500000 )

 cart.    s(13) = ( -1.0000000 -0.0000000  0.0000000 )    f =( -0.3535534 )
                  ( -0.0000000  0.0000000  1.0000000 )       (  0.3535534 )
                  (  0.0000000  1.0000000 -0.0000000 )       (  0.3535534 )


      isym = 14     180 deg rotation - cart. axis [0,1,-1]       

 cryst.   s(14) = (     0          0         -1      )    f =(  0.2500000 )
                  (     0         -1          0      )       (  0.2500000 )
                  (    -1          0          0      )       (  0.2500000 )

 cart.    s(14) = ( -1.0000000  0.0000000 -0.0000000 )    f =( -0.3535534 )
                  ( -0.0000000 -0.0000000 -1.0000000 )       (  0.3535534 )
                  (  0.0000000 -1.0000000  0.0000000 )       (  0.3535534 )


      isym = 15      90 deg rotation - cart. axis [-1,0,0]       

 cryst.   s(15) = (     0          0          1      )    f =(  0.2500000 )
                  (    -1          0          1      )       (  0.2500000 )
                  (     0         -1          1      )       (  0.2500000 )

 cart.    s(15) = (  1.0000000  0.0000000  0.0000000 )    f =( -0.3535534 )
                  (  0.0000000 -0.0000000  1.0000000 )       (  0.3535534 )
                  ( -0.0000000 -1.0000000 -0.0000000 )       (  0.3535534 )


      isym = 16      90 deg rotation - cart. axis [1,0,0]        

 cryst.   s(16) = (     1         -1          0      )    f =(  0.2500000 )
                  (     1          0         -1      )       (  0.2500000 )
                  (     1          0          0      )       (  0.2500000 )

 cart.    s(16) = (  1.0000000 -0.0000000 -0.0000000 )    f =( -0.3535534 )
                  (  0.0000000  0.0000000 -1.0000000 )       (  0.3535534 )
                  ( -0.0000000  1.0000000  0.0000000 )       (  0.3535534 )


      isym = 17     120 deg rotation - cart. axis [-1,-1,-1]     

 cryst.   s(17) = (    -1          0          1      )
                  (    -1          1          0      )
                  (    -1          0          0      )

 cart.    s(17) = ( -0.0000000  1.0000000  0.0000000 )
                  (  0.0000000  0.0000000  1.0000000 )
                  (  1.0000000 -0.0000000 -0.0000000 )


      isym = 18     120 deg rotation - cart. axis [-1,1,1]       

 cryst.   s(18) = (     0          1          0      )
                  (     0          0          1      )
                  (     1          0          0      )

 cart.    s(18) = (  0.0000000 -1.0000000  0.0000000 )
                  ( -0.0000000 -0.0000000  1.0000000 )
                  ( -1.0000000  0.0000000 -0.0000000 )


      isym = 19     120 deg rotation - cart. axis [1,1,-1]       

 cryst.   s(19) = (     1          0         -1      )
                  (     0          0         -1      )
                  (     0          1         -1      )

 cart.    s(19) = (  0.0000000  1.0000000 -0.0000000 )
                  ( -0.0000000  0.0000000 -1.0000000 )
                  ( -1.0000000 -0.0000000  0.0000000 )


      isym = 20     120 deg rotation - cart. axis [1,-1,1]       

 cryst.   s(20) = (     0         -1          0      )
                  (     1         -1          0      )
                  (     0         -1          1      )

 cart.    s(20) = ( -0.0000000 -1.0000000 -0.0000000 )
                  (  0.0000000 -0.0000000 -1.0000000 )
                  (  1.0000000  0.0000000  0.0000000 )


      isym = 21     120 deg rotation - cart. axis [1,1,1]        

 cryst.   s(21) = (     0          0         -1      )
                  (     0          1         -1      )
                  (     1          0         -1      )

 cart.    s(21) = (  0.0000000 -0.0000000  1.0000000 )
                  (  1.0000000  0.0000000  0.0000000 )
                  ( -0.0000000  1.0000000 -0.0000000 )


      isym = 22     120 deg rotation - cart. axis [-1,1,-1]      

 cryst.   s(22) = (    -1          1          0      )
                  (    -1          0          0      )
                  (    -1          0          1      )

 cart.    s(22) = ( -0.0000000  0.0000000  1.0000000 )
                  ( -1.0000000 -0.0000000  0.0000000 )
                  (  0.0000000 -1.0000000 -0.0000000 )


      isym = 23     120 deg rotation - cart. axis [1,-1,-1]      

 cryst.   s(23) = (     0          0          1      )
                  (     1          0          0      )
                  (     0          1          0      )

 cart.    s(23) = ( -0.0000000 -0.0000000 -1.0000000 )
                  ( -1.0000000  0.0000000 -0.0000000 )
                  (  0.0000000  1.0000000  0.0000000 )


      isym = 24     120 deg rotation - cart. axis [-1,-1,1]      

 cryst.   s(24) = (     1         -1          0      )
                  (     0         -1          1      )
                  (     0         -1          0      )

 cart.    s(24) = (  0.0000000  0.0000000 -1.0000000 )
                  (  1.0000000 -0.0000000 -0.0000000 )
                  ( -0.0000000 -1.0000000  0.0000000 )


      isym = 25     inversion                                    

 cryst.   s(25) = (    -1          0          0      )    f =(  0.2500000 )
                  (     0         -1          0      )       (  0.2500000 )
                  (     0          0         -1      )       (  0.2500000 )

 cart.    s(25) = ( -1.0000000 -0.0000000  0.0000000 )    f =( -0.3535534 )
                  ( -0.0000000 -1.0000000 -0.0000000 )       (  0.3535534 )
                  (  0.0000000  0.0000000 -1.0000000 )       (  0.3535534 )


      isym = 26     inv. 180 deg rotation - cart. axis [0,0,1]   

 cryst.   s(26) = (     0         -1          1      )    f =(  0.2500000 )
                  (    -1          0          1      )       (  0.2500000 )
                  (     0          0          1      )       (  0.2500000 )

 cart.    s(26) = (  1.0000000  0.0000000  0.0000000 )    f =( -0.3535534 )
                  (  0.0000000  1.0000000 -0.0000000 )       (  0.3535534 )
                  ( -0.0000000 -0.0000000 -1.0000000 )       (  0.3535534 )


      isym = 27     inv. 180 deg rotation - cart. axis [0,1,0]   

 cryst.   s(27) = (     1          0          0      )    f =(  0.2500000 )
                  (     1          0         -1      )       (  0.2500000 )
                  (     1         -1          0      )       (  0.2500000 )

 cart.    s(27) = (  1.0000000 -0.0000000 -0.0000000 )    f =( -0.3535534 )
                  (  0.0000000 -1.0000000  0.0000000 )       (  0.3535534 )
                  ( -0.0000000  0.0000000  1.0000000 )       (  0.3535534 )


      isym = 28     inv. 180 deg rotation - cart. axis [1,0,0]   

 cryst.   s(28) = (     0          1         -1      )    f =(  0.2500000 )
                  (     0          1          0      )       (  0.2500000 )
                  (    -1          1          0      )       (  0.2500000 )

 cart.    s(28) = ( -1.0000000  0.0000000 -0.0000000 )    f =( -0.3535534 )
                  ( -0.0000000  1.0000000  0.0000000 )       (  0.3535534 )
                  (  0.0000000 -0.0000000  1.0000000 )       (  0.3535534 )


      isym = 29     inv. 180 deg rotation - cart. axis [1,1,0]   

 cryst.   s(29) = (     0          1          0      )
                  (     1          0          0      )
                  (     0          0          1      )

 cart.    s(29) = ( -0.0000000 -1.0000000 -0.0000000 )
                  ( -1.0000000 -0.0000000  0.0000000 )
                  (  0.0000000  0.0000000  1.0000000 )


      isym = 30     inv. 180 deg rotation - cart. axis [1,-1,0]  

 cryst.   s(30) = (     1          0         -1      )
                  (     0          1         -1      )
                  (     0          0         -1      )

 cart.    s(30) = (  0.0000000  1.0000000 -0.0000000 )
                  (  1.0000000  0.0000000  0.0000000 )
                  ( -0.0000000 -0.0000000  1.0000000 )


      isym = 31     inv.  90 deg rotation - cart. axis [0,0,-1]  

 cryst.   s(31) = (     0         -1          0      )
                  (     0         -1          1      )
                  (     1         -1          0      )

 cart.    s(31) = (  0.0000000 -1.0000000  0.0000000 )
                  (  1.0000000 -0.0000000 -0.0000000 )
                  ( -0.0000000  0.0000000 -1.0000000 )


      isym = 32     inv.  90 deg rotation - cart. axis [0,0,1]   

 cryst.   s(32) = (    -1          0          1      )
                  (    -1          0          0      )
                  (    -1          1          0      )

 cart.    s(32) = ( -0.0000000  1.0000000  0.0000000 )
                  ( -1.0000000  0.0000000 -0.0000000 )
                  (  0.0000000 -0.0000000 -1.0000000 )


      isym = 33     inv. 180 deg rotation - cart. axis [1,0,1]   

 cryst.   s(33) = (     1          0          0      )
                  (     0          0          1      )
                  (     0          1          0      )

 cart.    s(33) = (  0.0000000  0.0000000 -1.0000000 )
                  ( -0.0000000  1.0000000 -0.0000000 )
                  ( -1.0000000 -0.0000000  0.0000000 )


      isym = 34     inv. 180 deg rotation - cart. axis [-1,0,1]  

 cryst.   s(34) = (    -1          0          0      )
                  (    -1          1          0      )
                  (    -1          0          1      )

 cart.    s(34) = ( -0.0000000  0.0000000  1.0000000 )
                  (  0.0000000  1.0000000  0.0000000 )
                  (  1.0000000 -0.0000000 -0.0000000 )


      isym = 35     inv.  90 deg rotation - cart. axis [0,1,0]   

 cryst.   s(35) = (     0         -1          1      )
                  (     1         -1          0      )
                  (     0         -1          0      )

 cart.    s(35) = ( -0.0000000 -0.0000000 -1.0000000 )
                  (  0.0000000 -1.0000000 -0.0000000 )
                  (  1.0000000  0.0000000  0.0000000 )


      isym = 36     inv.  90 deg rotation - cart. axis [0,-1,0]  

 cryst.   s(36) = (     0          1         -1      )
                  (     0          0         -1      )
                  (     1          0         -1      )

 cart.    s(36) = (  0.0000000 -0.0000000  1.0000000 )
                  ( -0.0000000 -1.0000000  0.0000000 )
                  ( -1.0000000  0.0000000 -0.0000000 )


      isym = 37     inv. 180 deg rotation - cart. axis [0,1,1]   

 cryst.   s(37) = (     1         -1          0      )
                  (     0         -1          0      )
                  (     0         -1          1      )

 cart.    s(37) = (  1.0000000  0.0000000 -0.0000000 )
                  (  0.0000000 -0.0000000 -1.0000000 )
                  ( -0.0000000 -1.0000000  0.0000000 )


      isym = 38     inv. 180 deg rotation - cart. axis [0,1,-1]  

 cryst.   s(38) = (     0          0          1      )
                  (     0          1          0      )
                  (     1          0          0      )

 cart.    s(38) = (  1.0000000 -0.0000000  0.0000000 )
                  (  0.0000000  0.0000000  1.0000000 )
                  ( -0.0000000  1.0000000 -0.0000000 )


      isym = 39     inv.  90 deg rotation - cart. axis [-1,0,0]  

 cryst.   s(39) = (     0          0         -1      )
                  (     1          0         -1      )
                  (     0          1         -1      )

 cart.    s(39) = ( -1.0000000 -0.0000000 -0.0000000 )
                  ( -0.0000000  0.0000000 -1.0000000 )
                  (  0.0000000  1.0000000  0.0000000 )


      isym = 40     inv.  90 deg rotation - cart. axis [1,0,0]   

 cryst.   s(40) = (    -1          1          0      )
                  (    -1          0          1      )
                  (    -1          0          0      )

 cart.    s(40) = ( -1.0000000  0.0000000  0.0000000 )
                  ( -0.0000000 -0.0000000  1.0000000 )
                  (  0.0000000 -1.0000000 -0.0000000 )


      isym = 41     inv. 120 deg rotation - cart. axis [-1,-1,-1]

 cryst.   s(41) = (     1          0         -1      )    f =(  0.2500000 )
                  (     1         -1          0      )       (  0.2500000 )
                  (     1          0          0      )       (  0.2500000 )

 cart.    s(41) = (  0.0000000 -1.0000000 -0.0000000 )    f =( -0.3535534 )
                  ( -0.0000000 -0.0000000 -1.0000000 )       (  0.3535534 )
                  ( -1.0000000  0.0000000  0.0000000 )       (  0.3535534 )


      isym = 42     inv. 120 deg rotation - cart. axis [-1,1,1]  

 cryst.   s(42) = (     0         -1          0      )    f =(  0.2500000 )
                  (     0          0         -1      )       (  0.2500000 )
                  (    -1          0          0      )       (  0.2500000 )

 cart.    s(42) = ( -0.0000000  1.0000000 -0.0000000 )    f =( -0.3535534 )
                  (  0.0000000  0.0000000 -1.0000000 )       (  0.3535534 )
                  (  1.0000000 -0.0000000  0.0000000 )       (  0.3535534 )


      isym = 43     inv. 120 deg rotation - cart. axis [1,1,-1]  

 cryst.   s(43) = (    -1          0          1      )    f =(  0.2500000 )
                  (     0          0          1      )       (  0.2500000 )
                  (     0         -1          1      )       (  0.2500000 )

 cart.    s(43) = ( -0.0000000 -1.0000000  0.0000000 )    f =( -0.3535534 )
                  (  0.0000000 -0.0000000  1.0000000 )       (  0.3535534 )
                  (  1.0000000  0.0000000 -0.0000000 )       (  0.3535534 )


      isym = 44     inv. 120 deg rotation - cart. axis [1,-1,1]  

 cryst.   s(44) = (     0          1          0      )    f =(  0.2500000 )
                  (    -1          1          0      )       (  0.2500000 )
                  (     0          1         -1      )       (  0.2500000 )

 cart.    s(44) = (  0.0000000  1.0000000  0.0000000 )    f =( -0.3535534 )
                  ( -0.0000000  0.0000000  1.0000000 )       (  0.3535534 )
                  ( -1.0000000 -0.0000000 -0.0000000 )       (  0.3535534 )


      isym = 45     inv. 120 deg rotation - cart. axis [1,1,1]   

 cryst.   s(45) = (     0          0          1      )    f =(  0.2500000 )
                  (     0         -1          1      )       (  0.2500000 )
                  (    -1          0          1      )       (  0.2500000 )

 cart.    s(45) = ( -0.0000000  0.0000000 -1.0000000 )    f =( -0.3535534 )
                  ( -1.0000000 -0.0000000 -0.0000000 )       (  0.3535534 )
                  (  0.0000000 -1.0000000  0.0000000 )       (  0.3535534 )


      isym = 46     inv. 120 deg rotation - cart. axis [-1,1,-1] 

 cryst.   s(46) = (     1         -1          0      )    f =(  0.2500000 )
                  (     1          0          0      )       (  0.2500000 )
                  (     1          0         -1      )       (  0.2500000 )

 cart.    s(46) = (  0.0000000 -0.0000000 -1.0000000 )    f =( -0.3535534 )
                  (  1.0000000  0.0000000 -0.0000000 )       (  0.3535534 )
                  ( -0.0000000  1.0000000  0.0000000 )       (  0.3535534 )


      isym = 47     inv. 120 deg rotation - cart. axis [1,-1,-1] 

 cryst.   s(47) = (     0          0         -1      )    f =(  0.2500000 )
                  (    -1          0          0      )       (  0.2500000 )
                  (     0         -1          0      )       (  0.2500000 )

 cart.    s(47) = (  0.0000000  0.0000000  1.0000000 )    f =( -0.3535534 )
                  (  1.0000000 -0.0000000  0.0000000 )       (  0.3535534 )
                  ( -0.0000000 -1.0000000 -0.0000000 )       (  0.3535534 )


      isym = 48     inv. 120 deg rotation - cart. axis [-1,-1,1] 

 cryst.   s(48) = (    -1          1          0      )    f =(  0.2500000 )
                  (     0          1         -1      )       (  0.2500000 )
                  (     0          1          0      )       (  0.2500000 )

 cart.    s(48) = ( -0.0000000 -0.0000000  1.0000000 )    f =( -0.3535534 )
                  ( -1.0000000  0.0000000  0.0000000 )       (  0.3535534 )
                  (  0.0000000  1.0000000 -0.0000000 )       (  0.3535534 )


   Cartesian axes

     site n.     atom                  positions (alat units)
         1        Si     tau(   1) = (   0.0000000   0.0000000   0.0000000  )
         2        Si     tau(   2) = (   0.3535534   0.3535534   0.3535534  )

   Crystallographic axes

     site n.     atom                  positions (cryst. coord.)
         1        Si     tau(   1) = (  0.0000000  0.0000000  0.0000000  )
         2        Si     tau(   2) = ( -0.2500000  0.7500000 -0.2500000  )

     number of k points=    32  Marzari-Vanderbilt smearing, width (Ry)=  0.0200
                       cart. coord. in units 2pi/alat
        k(    1) = (   0.0000000   0.0000000   0.0000000), wk =   0.0625000
        k(    2) = (  -0.1414214  -0.0000000   0.0000000), wk =   0.0625000
        k(    3) = (  -0.2828427  -0.0000000   0.0000000), wk =   0.0625000
        k(    4) = (  -0.4242641  -0.0000000   0.0000000), wk =   0.0625000
        k(    5) = (  -0.5656854  -0.0000000   0.0000000), wk =   0.0625000
        k(    6) = (  -0.7071068   0.0000000   0.0000000), wk =   0.0625000
        k(    7) = (  -0.7071068   0.0353553   0.0353553), wk =   0.0625000
        k(    8) = (  -0.7071068   0.0707107   0.0707107), wk =   0.0625000
        k(    9) = (  -0.7071068   0.1060660   0.1060660), wk =   0.0625000
        k(   10) = (  -0.7071068   0.1414214   0.1414214), wk =   0.0625000
        k(   11) = (  -0.7071068   0.1767767   0.1767767), wk =   0.0625000
        k(   12) = (  -0.5303301   0.5303301   0.0000000), wk =   0.0625000
        k(   13) = (  -0.4242641   0.4242641  -0.0000000), wk =   0.0625000
        k(   14) = (  -0.3181981   0.3181981  -0.0000000), wk =   0.0625000
        k(   15) = (  -0.2121320   0.2121320   0.0000000), wk =   0.0625000
        k(   16) = (  -0.1060660   0.1060660   0.0000000), wk =   0.0625000
        k(   17) = (   0.0000000   0.0000000   0.0000000), wk =   0.0625000
        k(   18) = (  -0.0707107   0.0707107   0.0707107), wk =   0.0625000
        k(   19) = (  -0.1414214   0.1414214   0.1414214), wk =   0.0625000
        k(   20) = (  -0.2121320   0.2121320   0.2121320), wk =   0.0625000
        k(   21) = (  -0.2828427   0.2828427   0.2828427), wk =   0.0625000
        k(   22) = (  -0.3535534   0.3535534   0.3535534), wk =   0.0625000
        k(   23) = (  -0.4242641   0.3535534   0.2828427), wk =   0.0625000
        k(   24) = (  -0.4949747   0.3535534   0.2121320), wk =   0.0625000
        k(   25) = (  -0.5656854   0.3535534   0.1414214), wk =   0.0625000
        k(   26) = (  -0.6363961   0.3535534   0.0707107), wk =   0.0625000
        k(   27) = (  -0.7071068   0.3535534   0.0000000), wk =   0.0625000
        k(   28) = (  -0.7071068   0.2828427   0.0000000), wk =   0.0625000
        k(   29) = (  -0.7071068   0.2121320  -0.0000000), wk =   0.0625000
        k(   30) = (  -0.7071068   0.1414214  -0.0000000), wk =   0.0625000
        k(   31) = (  -0.7071068   0.0707107  -0.0000000), wk =   0.0625000
        k(   32) = (  -0.7071068   0.0000000   0.0000000), wk =   0.0625000

                       cryst. coord.
        k(    1) = (   0.0000000   0.0000000   0.0000000), wk =   0.0625000
        k(    2) = (   0.1000000  -0.0000000   0.1000000), wk =   0.0625000
        k(    3) = (   0.2000000  -0.0000000   0.2000000), wk =   0.0625000
        k(    4) = (   0.3000000   0.0000000   0.3000000), wk =   0.0625000
        k(    5) = (   0.4000000  -0.0000000   0.4000000), wk =   0.0625000
        k(    6) = (   0.5000000   0.0000000   0.5000000), wk =   0.0625000
        k(    7) = (   0.5250000   0.0500000   0.5250000), wk =   0.0625000
        k(    8) = (   0.5500000   0.1000000   0.5500000), wk =   0.0625000
        k(    9) = (   0.5750000   0.1500000   0.5750000), wk =   0.0625000
        k(   10) = (   0.6000000   0.2000000   0.6000000), wk =   0.0625000
        k(   11) = (   0.6250000   0.2500000   0.6250000), wk =   0.0625000
        k(   12) = (   0.3750000   0.3750000   0.7500000), wk =   0.0625000
        k(   13) = (   0.3000000   0.3000000   0.6000000), wk =   0.0625000
        k(   14) = (   0.2250000   0.2250000   0.4500000), wk =   0.0625000
        k(   15) = (   0.1500000   0.1500000   0.3000000), wk =   0.0625000
        k(   16) = (   0.0750000   0.0750000   0.1500000), wk =   0.0625000
        k(   17) = (   0.0000000   0.0000000   0.0000000), wk =   0.0625000
        k(   18) = (   0.1000000   0.1000000   0.1000000), wk =   0.0625000
        k(   19) = (   0.2000000   0.2000000   0.2000000), wk =   0.0625000
        k(   20) = (   0.3000000   0.3000000   0.3000000), wk =   0.0625000
        k(   21) = (   0.4000000   0.4000000   0.4000000), wk =   0.0625000
        k(   22) = (   0.5000000   0.5000000   0.5000000), wk =   0.0625000
        k(   23) = (   0.5000000   0.4500000   0.5500000), wk =   0.0625000
        k(   24) = (   0.5000000   0.4000000   0.6000000), wk =   0.0625000
        k(   25) = (   0.5000000   0.3500000   0.6500000), wk =   0.0625000
        k(   26) = (   0.5000000   0.3000000   0.7000000), wk =   0.0625000
        k(   27) = (   0.5000000   0.2500000   0.7500000), wk =   0.0625000
        k(   28) = (   0.5000000   0.2000000   0.7000000), wk =   0.0625000
        k(   29) = (   0.5000000   0.1500000   0.6500000), wk =   0.0625000
        k(   30) = (   0.5000000   0.1000000   0.6000000), wk =   0.0625000
        k(   31) = (   0.5000000   0.0500000   0.5500000), wk =   0.0625000
        k(   32) = (   0.5000000   0.0000000   0.5000000), wk =   0.0625000

     Dense  grid:    16625 G-vectors     FFT dimensions: (  36,  36,  36)

     Smooth grid:     5961 G-vectors     FFT dimensions: (  32,  32,  32)

     Dynamical RAM for                 wfc:       0.02 MB

     Dynamical RAM for     wfc (w. buffer):       0.02 MB

     Dynamical RAM for           str. fact:       0.04 MB

     Dynamical RAM for           local pot:       0.00 MB

     Dynamical RAM for          nlocal pot:       0.07 MB

     Dynamical RAM for                qrad:       1.24 MB

     Dynamical RAM for          rho,v,vnew:       0.30 MB

     Dynamical RAM for           G-vectors:       0.17 MB

     Dynamical RAM for          h,s,v(r/c):       0.03 MB

     Dynamical RAM for          <psi|beta>:       0.01 MB

     Dynamical RAM for                 psi:       0.04 MB

     Dynamical RAM for                hpsi:       0.04 MB

     Dynamical RAM for                spsi:       0.04 MB

     Dynamical RAM for      wfcinit/wfcrot:       0.05 MB

     Dynamical RAM for           addusdens:       7.95 MB

     Estimated static dynamical RAM per process >       2.23 MB

     Estimated max dynamical RAM per process >      10.18 MB

     Estimated total dynamical RAM >      61.10 MB

     The potential is recalculated from file :
     ./out/silicon.save/charge-density

     Starting wfcs are    8 randomized atomic wfcs +    4 random wfcs

     Band Structure Calculation
     Davidson diagonalization with overlap

     Computing kpt #:     1  of    32
     total cpu time spent up to now is        0.2 secs

     Computing kpt #:     2  of    32
     total cpu time spent up to now is        0.2 secs

     Computing kpt #:     3  of    32
     total cpu time spent up to now is        0.2 secs

     Computing kpt #:     4  of    32
     total cpu time spent up to now is        0.3 secs

     Computing kpt #:     5  of    32
     total cpu time spent up to now is        0.3 secs

     Computing kpt #:     6  of    32
     total cpu time spent up to now is        0.3 secs

     Computing kpt #:     7  of    32
     total cpu time spent up to now is        0.4 secs

     Computing kpt #:     8  of    32
     total cpu time spent up to now is        0.4 secs

     Computing kpt #:     9  of    32
     total cpu time spent up to now is        0.5 secs

     Computing kpt #:    10  of    32
     total cpu time spent up to now is        0.5 secs

     Computing kpt #:    11  of    32
     total cpu time spent up to now is        0.6 secs

     Computing kpt #:    12  of    32
     total cpu time spent up to now is        0.6 secs

     Computing kpt #:    13  of    32
     total cpu time spent up to now is        0.7 secs

     Computing kpt #:    14  of    32
     total cpu time spent up to now is        0.7 secs

     Computing kpt #:    15  of    32
     total cpu time spent up to now is        0.7 secs

     Computing kpt #:    16  of    32
     total cpu time spent up to now is        0.8 secs

     Computing kpt #:    17  of    32
     total cpu time spent up to now is        0.8 secs

     Computing kpt #:    18  of    32
     total cpu time spent up to now is        0.8 secs

     Computing kpt #:    19  of    32
     total cpu time spent up to now is        0.9 secs

     Computing kpt #:    20  of    32
     total cpu time spent up to now is        0.9 secs

     Computing kpt #:    21  of    32
     total cpu time spent up to now is        0.9 secs

     Computing kpt #:    22  of    32
     total cpu time spent up to now is        1.0 secs

     Computing kpt #:    23  of    32
     total cpu time spent up to now is        1.0 secs

     Computing kpt #:    24  of    32
     total cpu time spent up to now is        1.0 secs

     Computing kpt #:    25  of    32
     total cpu time spent up to now is        1.1 secs

     Computing kpt #:    26  of    32
     total cpu time spent up to now is        1.1 secs

     Computing kpt #:    27  of    32
     total cpu time spent up to now is        1.1 secs

     Computing kpt #:    28  of    32
     total cpu time spent up to now is        1.2 secs

     Computing kpt #:    29  of    32
     total cpu time spent up to now is        1.2 secs

     Computing kpt #:    30  of    32
     total cpu time spent up to now is        1.2 secs

     Computing kpt #:    31  of    32
     total cpu time spent up to now is        1.3 secs

     Computing kpt #:    32  of    32
     total cpu time spent up to now is        1.3 secs

     ethr =  5.00E-12,  avg # of iterations = 48.9

     total cpu time spent up to now is        1.3 secs

     End of band structure calculation

          k = 0.0000 0.0000 0.0000 (   725 PWs)   bands (ev):

    -5.6941   6.3959   6.3959   6.3959   8.9655   8.9655   8.9655   9.9672
    14.1369  14.1369  14.4309  17.7178

          k =-0.1414-0.0000 0.0000 (   733 PWs)   bands (ev):

    -5.5165   5.4721   5.8059   5.8059   8.5808   9.7730   9.7730  10.7681
    13.1523  14.3333  15.1631  18.0242

          k =-0.2828-0.0000 0.0000 (   725 PWs)   bands (ev):

    -4.9877   3.7823   4.8779   4.8779   7.8463  10.3138  11.3388  11.3388
    13.6387  14.9221  16.9072  18.9115

          k =-0.4243-0.0000 0.0000 (   725 PWs)   bands (ev):

    -4.1203   1.9703   4.1248   4.1248   7.2349   8.7922  13.1220  13.1220
    15.7216  15.9001  19.0084  19.9721

          k =-0.5657-0.0000 0.0000 (   749 PWs)   bands (ev):

    -2.9386   0.1820   3.6528   3.6528   6.9450   7.6740  15.0067  15.0067
    17.2629  17.8564  19.0990  19.0990

          k =-0.7071 0.0000 0.0000 (   740 PWs)   bands (ev):

    -1.4833  -1.4833   3.4930   3.4930   7.0704   7.0704  16.6564  16.6564
    17.4421  17.4421  19.0038  19.0038

          k =-0.7071 0.0354 0.0354 (   736 PWs)   bands (ev):

    -1.4922  -1.4594   3.3463   3.5108   7.0910   7.2900  16.4145  16.5296
    17.1504  17.1920  19.2489  19.2614

          k =-0.7071 0.0707 0.0707 (   742 PWs)   bands (ev):

    -1.5231  -1.3876   2.9980   3.5642   7.1528   7.8606  15.8741  16.2008
    16.5371  16.6736  19.7520  19.8470

          k =-0.7071 0.1061 0.1061 (   738 PWs)   bands (ev):

    -1.5888  -1.2681   2.5981   3.6523   7.2549   8.6437  15.2380  15.7598
    15.8469  16.0900  20.3106  20.5211

          k =-0.7071 0.1414 0.1414 (   736 PWs)   bands (ev):

    -1.7073  -1.1010   2.2481   3.7741   7.3961   9.5529  14.5849  15.1577
    15.2696  15.5042  20.8640  20.9640

          k =-0.7071 0.1768 0.1768 (   724 PWs)   bands (ev):

    -1.8958  -0.8866   2.0052   3.9276   7.5747  10.5412  13.9440  14.4985
    14.7664  14.9407  21.3456  21.3946

          k =-0.5303 0.5303 0.0000 (   724 PWs)   bands (ev):

    -1.8958  -0.8866   2.0052   3.9276   7.5747  10.5412  13.9440  14.4985
    14.7664  14.9407  21.3456  21.3946

          k =-0.4243 0.4243-0.0000 (   732 PWs)   bands (ev):

    -2.8511   0.0364   2.0462   4.5483   8.2964  12.1980  12.4846  13.3621
    13.5042  14.0543  20.1423  20.7497

          k =-0.3182 0.3182-0.0000 (   742 PWs)   bands (ev):

    -3.9816   1.3659   2.9294   5.2973   9.1155  10.7977  11.1430  12.3823
    12.6324  16.9259  18.4598  18.7865

          k =-0.2121 0.2121 0.0000 (   748 PWs)   bands (ev):

    -4.9086   3.0669   4.2505   5.9464   9.5171   9.7833  10.0678  12.1292
    12.5586  15.2741  16.7299  17.8186

          k =-0.1061 0.1061 0.0000 (   735 PWs)   bands (ev):

    -5.4948   5.0258   5.6556   6.3017   9.1704   9.3149   9.3528  11.1685
    13.3441  13.9859  15.2293  17.5518

          k = 0.0000 0.0000 0.0000 (   725 PWs)   bands (ev):

    -5.6941   6.3959   6.3959   6.3959   8.9655   8.9655   8.9655   9.9672
    14.1369  14.1369  14.4309  17.7178

          k =-0.0707 0.0707 0.0707 (   731 PWs)   bands (ev):

    -5.5611   5.2466   6.1932   6.1932   9.0114   9.2636   9.2636  10.8547
    13.7748  13.7748  14.9753  17.2887

          k =-0.1414 0.1414 0.1414 (   733 PWs)   bands (ev):

    -5.1684   3.3628   5.8060   5.8060   8.6754   9.7772   9.7772  12.6048
    13.4577  13.4577  15.6177  17.4452

          k =-0.2121 0.2121 0.2121 (   748 PWs)   bands (ev):

    -4.5424   1.5512   5.4666   5.4666   8.3174   9.9382   9.9382  14.0193
    14.0193  14.1465  15.4045  19.4745

          k =-0.2828 0.2828 0.2828 (   745 PWs)   bands (ev):

    -3.7802   0.0501   5.2519   5.2519   8.0790   9.8088   9.8088  14.2725
    15.4359  15.4359  16.6603  19.7138

          k =-0.3536 0.3536 0.3536 (   754 PWs)   bands (ev):

    -3.3163  -0.6636   5.1795   5.1795   7.9970   9.7286   9.7286  14.1523
    17.0041  17.0041  17.8533  17.8533

          k =-0.4243 0.3536 0.2828 (   738 PWs)   bands (ev):

    -3.2276  -0.6165   4.5137   5.0111   8.5565   9.6036  10.1215  14.4823
    15.7231  16.4427  17.9289  18.1400

          k =-0.4950 0.3536 0.2121 (   738 PWs)   bands (ev):

    -2.9643  -0.5062   3.3935   4.5266   9.2239   9.4830  11.4547  14.2451
    14.3394  16.5797  18.1031  18.5571

          k =-0.5657 0.3536 0.1414 (   732 PWs)   bands (ev):

    -2.5359  -0.4612   2.4959   3.8291   9.6298   9.7879  12.9299  13.3439
    13.3551  17.4393  18.3803  19.5026

          k =-0.6364 0.3536 0.0707 (   730 PWs)   bands (ev):

    -1.9655  -0.7251   2.1754   3.0849  10.0650  10.4192  11.8339  12.3064
    15.3989  17.6874  18.7810  20.9664

          k =-0.7071 0.3536 0.0000 (   724 PWs)   bands (ev):

    -1.3109  -1.3109   2.4630   2.4630  10.6678  10.6678  11.4631  11.4631
    17.0895  17.0895  19.5911  19.5911

          k =-0.7071 0.2828 0.0000 (   734 PWs)   bands (ev):

    -1.3290  -1.3290   2.5427   2.5427   9.8350   9.8350  12.3829  12.3829
    17.0867  17.0867  19.5569  19.5569

          k =-0.7071 0.2121-0.0000 (   738 PWs)   bands (ev):

    -1.3745  -1.3745   2.7636   2.7636   8.8160   8.8160  13.6658  13.6658
    17.0818  17.0818  19.4725  19.4725

          k =-0.7071 0.1414-0.0000 (   734 PWs)   bands (ev):

    -1.4276  -1.4276   3.0710   3.0710   7.9403   7.9403  14.9853  14.9853
    17.0882  17.0882  19.3699  19.3699

          k =-0.7071 0.0707-0.0000 (   736 PWs)   bands (ev):

    -1.4682  -1.4682   3.3643   3.3643   7.3104   7.3104  16.1786  16.1786
    17.1717  17.1717  19.2405  19.2405

          k =-0.7071 0.0000 0.0000 (   740 PWs)   bands (ev):

    -1.4833  -1.4833   3.4930   3.4930   7.0704   7.0704  16.6564  16.6564
    17.4421  17.4421  19.0038  19.0038

     Writing all to output data dir ./out/silicon.save/ :
     XML data file, pseudopotentials, collected wavefunctions

     init_run     :      0.04s CPU      0.04s WALL (       1 calls)
     electrons    :      1.13s CPU      1.17s WALL (       1 calls)

     Called by init_run:
     wfcinit      :      0.00s CPU      0.00s WALL (       1 calls)
     wfcinit:atom :      0.00s CPU      0.00s WALL (      32 calls)
     wfcinit:wfcr :      0.03s CPU      0.03s WALL (      32 calls)
     potinit      :      0.00s CPU      0.00s WALL (       1 calls)
     hinit0       :      0.03s CPU      0.03s WALL (       1 calls)

     Called by electrons:
     c_bands      :      1.13s CPU      1.17s WALL (       1 calls)
     v_of_rho     :      0.00s CPU      0.00s WALL (       1 calls)
     v_h          :      0.00s CPU      0.00s WALL (       1 calls)
     v_xc         :      0.00s CPU      0.00s WALL (       1 calls)
     newd         :      0.00s CPU      0.01s WALL (       1 calls)

     Called by c_bands:
     init_us_2    :      0.00s CPU      0.00s WALL (      32 calls)
     cegterg      :      1.09s CPU      1.13s WALL (      94 calls)

     Called by sum_band:

     Called by *egterg:
     cdiaghg      :      0.18s CPU      0.18s WALL (    1598 calls)
     cegterg:over :      0.08s CPU      0.08s WALL (    1566 calls)
     cegterg:upda :      0.02s CPU      0.02s WALL (    1566 calls)
     cegterg:last :      0.04s CPU      0.04s WALL (     975 calls)
     h_psi        :      0.75s CPU      0.78s WALL (    1692 calls)
     s_psi        :      0.03s CPU      0.03s WALL (    1692 calls)
     g_psi        :      0.00s CPU      0.00s WALL (    1566 calls)

     Called by h_psi:
     h_psi:calbec :      0.05s CPU      0.05s WALL (    1692 calls)
     vloc_psi     :      0.67s CPU      0.69s WALL (    1692 calls)
                                        0.00s GPU  (    1692 calls)
     add_vuspsi   :      0.03s CPU      0.03s WALL (    1692 calls)

     General routines
     calbec       :      0.05s CPU      0.05s WALL (    1692 calls)
     fft          :      0.00s CPU      0.00s WALL (      13 calls)
     ffts         :      0.00s CPU      0.00s WALL (       1 calls)
     fftw         :      0.59s CPU      0.60s WALL (   23956 calls)
     interpolate  :      0.00s CPU      0.00s WALL (       1 calls)
     davcio       :      0.00s CPU      0.00s WALL (      64 calls)

     Parallel routines

     PWSCF        :      1.26s CPU      1.32s WALL


   This run was terminated on:  14:19:26  27Apr2026            

=------------------------------------------------------------------------------=
   JOB DONE.
=------------------------------------------------------------------------------=
