
     Program BANDS v.7.5 starts on  7May2026 at 12:22:46 

     This program is part of the open-source Quantum ESPRESSO suite
     for quantum simulation of materials; please cite
         "P. Giannozzi et al., J. Phys.:Condens. Matter 21 395502 (2009);
         "P. Giannozzi et al., J. Phys.:Condens. Matter 29 465901 (2017);
         "P. Giannozzi et al., J. Chem. Phys. 152 154105 (2020);
          URL http://www.quantum-espresso.org", 
     in publications or presentations arising from this work. More details at
     http://www.quantum-espresso.org/quote

     Parallel version (MPI), running on     6 processors

     MPI processes distributed on     1 nodes
     R & G space division:  proc/nbgrp/npool/nimage =       6
     0 MiB available memory on the printing compute node when the environment starts


     Reading xml data from directory:

     ./out/silicon.save/

     IMPORTANT: XC functional enforced from input :
     Exchange-correlation= PBE
                           (   1   4   3   4   0   0   0)
     Any further DFT definition will be discarded
     Please, verify this is what you really want


     Parallelization info
     --------------------
     sticks:   dense  smooth     PW     G-vecs:    dense   smooth      PW
     Min         142      72     23                 2770      992     177
     Max         144      73     24                 2773      995     179
     Sum         859     433    139                16625     5961    1067

     Using Slab Decomposition

     Reading collected, re-writing distributed wavefunctions
     high-symmetry point:  0.0000 0.0000 0.0000   x coordinate   0.0000
     high-symmetry point: -0.7071 0.0000 0.0000   x coordinate   0.7071
     high-symmetry point: -0.7071 0.1768 0.1768   x coordinate   0.9571
     high-symmetry point: -0.5303 0.5303 0.0000   x coordinate   0.9571
     high-symmetry point:  0.0000 0.0000 0.0000   x coordinate   1.7071
     high-symmetry point: -0.3536 0.3536 0.3536   x coordinate   2.3195
     high-symmetry point: -0.7071 0.3536 0.0000   x coordinate   2.8195
     high-symmetry point: -0.7071 0.0000 0.0000   x coordinate   3.1730

     Plottable bands (eV) written to file silicon.band.gnu
     Bands written to file silicon.band

 **************************************************************************

                    xk=(   0.00000,   0.00000,   0.00000  )

     point group O_h (m-3m) 
     there are 10 classes
     the character table:

       E     8C3   3C2   6C4   6C2'  i     8S6   3s_h  6S4   6s_d 
A_1g   1.00  1.00  1.00  1.00  1.00  1.00  1.00  1.00  1.00  1.00
A_2g   1.00  1.00  1.00 -1.00 -1.00  1.00  1.00  1.00 -1.00 -1.00
E_g    2.00 -1.00  2.00  0.00  0.00  2.00 -1.00  2.00  0.00  0.00
T_1g   3.00  0.00 -1.00  1.00 -1.00  3.00  0.00 -1.00  1.00 -1.00
T_2g   3.00  0.00 -1.00 -1.00  1.00  3.00  0.00 -1.00 -1.00  1.00
A_1u   1.00  1.00  1.00  1.00  1.00 -1.00 -1.00 -1.00 -1.00 -1.00
A_2u   1.00  1.00  1.00 -1.00 -1.00 -1.00 -1.00 -1.00  1.00  1.00
E_u    2.00 -1.00  2.00  0.00  0.00 -2.00  1.00 -2.00  0.00  0.00
T_1u   3.00  0.00 -1.00  1.00 -1.00 -3.00  0.00  1.00 -1.00  1.00
T_2u   3.00  0.00 -1.00 -1.00  1.00 -3.00  0.00  1.00  1.00 -1.00

     the symmetry operations in each class and the name of the first element:

     E        1
                                                                 
     8C3     17   19   20   18   24   21   22   23
                                                                 
     3C2      2    4    3
                                                                 
     6C4      7    8   15   16   12   11
                                                                 
     6C2'     5    6   14   13   10    9
                                                                 
     i       25
                                                                 
     8S6     41   43   44   42   48   45   46   47
                                                                 
     3s_h    26   28   27
                                                                 
     6S4     31   32   39   40   36   35
                                                                 
     6s_d    29   30   38   37   34   33
                                                                 

     Band symmetry, O_h (m-3m)  point group:

     e(  1 -  1) =     -5.69405  eV     1   --> A_1g G_1   G_1+
     e(  2 -  4) =      6.39586  eV     3   --> T_2g G_25' G_5+
     e(  5 -  7) =      8.96549  eV     3   --> T_1u G_15  G_4-
     e(  8 -  8) =      9.96724  eV     1   --> A_2u G_2'  G_2-
     e(  9 - 10) =     14.13693  eV     2   --> E_u  G_12' G_3-
     e( 11 - 11) =     14.43091  eV     1   --> A_1g G_1   G_1+
     e( 12 - 12) =     17.71784  eV     1   -->   ?

 **************************************************************************

 **************************************************************************

                    xk=(  -0.03536,  -0.00000,   0.00000  )

     point group C_4v (4mm) 
     there are  5 classes
     the character table:

       E     2C4   C2    2s_v  2s_d 
A_1    1.00  1.00  1.00  1.00  1.00
A_2    1.00  1.00  1.00 -1.00 -1.00
B_1    1.00 -1.00  1.00  1.00 -1.00
B_2    1.00 -1.00  1.00 -1.00  1.00
E      2.00  0.00 -2.00  0.00  0.00

     the symmetry operations in each class and the name of the first element:

     E        1
                                                                 
     2C4      3    4
                                                                 
     C2       2
                                                                 
     2s_v     5    6
                                                                 
     2s_d     7    8
                                                                 

     Band symmetry, C_4v (4mm)  point group:

     e(  1 -  1) =     -5.68293  eV     1   --> A_1  G_1 D_1   
     e(  2 -  2) =      6.32362  eV     1   --> B_2  G_4 D_2'  
     e(  3 -  4) =      6.34764  eV     2   --> E    G_5 D_5   
     e(  5 -  5) =      8.93792  eV     1   --> A_1  G_1 D_1   
     e(  6 -  7) =      9.02740  eV     2   --> E    G_5 D_5   
     e(  8 -  8) =     10.03784  eV     1   --> B_2  G_4 D_2'  
     e(  9 -  9) =     14.04636  eV     1   --> B_2  G_4 D_2'  
     e( 10 - 10) =     14.14921  eV     1   --> A_2  G_2 D_1'  
     e( 11 - 11) =     14.48033  eV     1   --> A_1  G_1 D_1   
     e( 12 - 12) =     17.73707  eV     1   -->   ?

 **************************************************************************

 **************************************************************************

                    xk=(  -0.07071,  -0.00000,   0.00000  )

     Band symmetry, C_4v (4mm)  point group:

     e(  1 -  1) =     -5.64960  eV     1   --> A_1  G_1 D_1   
     e(  2 -  2) =      6.12289  eV     1   --> B_2  G_4 D_2'  
     e(  3 -  4) =      6.21554  eV     2   --> E    G_5 D_5   
     e(  5 -  5) =      8.85844  eV     1   --> A_1  G_1 D_1   
     e(  6 -  7) =      9.20047  eV     2   --> E    G_5 D_5   
     e(  8 -  8) =     10.23002  eV     1   --> B_2  G_4 D_2'  
     e(  9 -  9) =     13.80412  eV     1   --> B_2  G_4 D_2'  
     e( 10 - 10) =     14.18604  eV     1   --> A_2  G_2 D_1'  
     e( 11 - 11) =     14.62524  eV     1   --> A_1  G_1 D_1   
     e( 12 - 12) =     17.79467  eV     1   -->   ?

 **************************************************************************

 **************************************************************************

                    xk=(  -0.10607,  -0.00000,   0.00000  )

     Band symmetry, C_4v (4mm)  point group:

     e(  1 -  1) =     -5.59409  eV     1   --> A_1  G_1 D_1   
     e(  2 -  2) =      5.82819  eV     1   --> B_2  G_4 D_2'  
     e(  3 -  4) =      6.02652  eV     2   --> E    G_5 D_5   
     e(  5 -  5) =      8.73567  eV     1   --> A_1  G_1 D_1   
     e(  6 -  7) =      9.45752  eV     2   --> E    G_5 D_5   
     e(  8 -  8) =     10.49573  eV     1   --> B_2  G_4 D_2'  
     e(  9 -  9) =     13.47809  eV     1   --> B_2  G_4 D_2'  
     e( 10 - 10) =     14.24742  eV     1   --> A_2  G_2 D_1'  
     e( 11 - 11) =     14.85675  eV     1   --> A_1  G_1 D_1   
     e( 12 - 12) =     17.89050  eV     1   -->   ?

 **************************************************************************

 **************************************************************************

                    xk=(  -0.14142,  -0.00000,   0.00000  )

     Band symmetry, C_4v (4mm)  point group:

     e(  1 -  1) =     -5.51648  eV     1   --> A_1  G_1 D_1   
     e(  2 -  2) =      5.47213  eV     1   --> B_2  G_4 D_2'  
     e(  3 -  4) =      5.80587  eV     2   --> E    G_5 D_5   
     e(  5 -  5) =      8.58085  eV     1   --> A_1  G_1 D_1   
     e(  6 -  7) =      9.77301  eV     2   --> E    G_5 D_5   
     e(  8 -  8) =     10.76806  eV     1   --> B_2  G_4 D_2'  
     e(  9 -  9) =     13.15231  eV     1   --> B_2  G_4 D_2'  
     e( 10 - 10) =     14.33333  eV     1   --> A_2  G_2 D_1'  
     e( 11 - 11) =     15.16306  eV     1   --> A_1  G_1 D_1   
     e( 12 - 12) =     18.02425  eV     1   -->   ?

 **************************************************************************

 **************************************************************************

                    xk=(  -0.17678,   0.00000,   0.00000  )

     Band symmetry, C_4v (4mm)  point group:

     e(  1 -  1) =     -5.41688  eV     1   --> A_1  G_1 D_1   
     e(  2 -  2) =      5.07767  eV     1   --> B_2  G_4 D_2'  
     e(  3 -  4) =      5.57128  eV     2   --> E    G_5 D_5   
     e(  5 -  5) =      8.40537  eV     1   --> A_1  G_1 D_1   
     e(  6 -  7) =     10.12890  eV     2   --> E    G_5 D_5   
     e(  8 -  8) =     10.94681  eV     1   --> B_2  G_4 D_2'  
     e(  9 -  9) =     12.93843  eV     1   --> B_2  G_4 D_2'  
     e( 10 - 10) =     14.44390  eV     1   --> A_2  G_2 D_1'  
     e( 11 - 11) =     15.53195  eV     1   --> A_1  G_1 D_1   
     e( 12 - 12) =     18.19514  eV     1   -->   ?

 **************************************************************************

 **************************************************************************

                    xk=(  -0.21213,  -0.00000,   0.00000  )

     Band symmetry, C_4v (4mm)  point group:

     e(  1 -  1) =     -5.29542  eV     1   --> A_1  G_1 D_1   
     e(  2 -  2) =      4.65918  eV     1   --> B_2  G_4 D_2'  
     e(  3 -  4) =      5.33402  eV     2   --> E    G_5 D_5   
     e(  5 -  5) =      8.21923  eV     1   --> A_1  G_1 D_1   
     e(  6 -  7) =     10.51311  eV     2   --> E    G_5 D_5   
     e(  8 -  8) =     10.91478  eV     1   --> B_2  G_4 D_2'  
     e(  9 -  9) =     12.96142  eV     1   --> B_2  G_4 D_2'  
     e( 10 - 10) =     14.57882  eV     1   --> A_2  G_2 D_1'  
     e( 11 - 11) =     15.95213  eV     1   --> A_1  G_1 D_1   
     e( 12 - 12) =     18.40186  eV     1   -->   ?

 **************************************************************************

 **************************************************************************

                    xk=(  -0.24749,   0.00000,  -0.00000  )

     Band symmetry, C_4v (4mm)  point group:

     e(  1 -  1) =     -5.15229  eV     1   --> A_1  G_1 D_1   
     e(  2 -  2) =      4.22552  eV     1   --> B_2  G_4 D_2'  
     e(  3 -  4) =      5.10138  eV     2   --> E    G_5 D_5   
     e(  5 -  5) =      8.03072  eV     1   --> A_1  G_1 D_1   
     e(  6 -  6) =     10.66979  eV     1   --> B_2  G_4 D_2'  
     e(  7 -  8) =     10.91798  eV     2   --> E    G_5 D_5   
     e(  9 -  9) =     13.22769  eV     1   --> B_2  G_4 D_2'  
     e( 10 - 10) =     14.73815  eV     1   --> A_2  G_2 D_1'  
     e( 11 - 11) =     16.41357  eV     1   --> A_1  G_1 D_1   
     e( 12 - 12) =     18.64200  eV     1   -->   ?

 **************************************************************************

 **************************************************************************

                    xk=(  -0.28284,  -0.00000,   0.00000  )

     Band symmetry, C_4v (4mm)  point group:

     e(  1 -  1) =     -4.98769  eV     1   --> A_1  G_1 D_1   
     e(  2 -  2) =      3.78227  eV     1   --> B_2  G_4 D_2'  
     e(  3 -  4) =      4.87792  eV     2   --> E    G_5 D_5   
     e(  5 -  5) =      7.84633  eV     1   --> A_1  G_1 D_1   
     e(  6 -  6) =     10.31380  eV     1   --> B_2  G_4 D_2'  
     e(  7 -  8) =     11.33877  eV     2   --> E    G_5 D_5   
     e(  9 -  9) =     13.63866  eV     1   --> B_2  G_4 D_2'  
     e( 10 - 10) =     14.92208  eV     1   --> A_2  G_2 D_1'  
     e( 11 - 11) =     16.90723  eV     1   --> A_1  G_1 D_1   
     e( 12 - 12) =     18.91146  eV     1   -->   ?

 **************************************************************************

 **************************************************************************

                    xk=(  -0.31820,  -0.00000,   0.00000  )

     Band symmetry, C_4v (4mm)  point group:

     e(  1 -  1) =     -4.80187  eV     1   --> A_1  G_1 D_1   
     e(  2 -  2) =      3.33284  eV     1   --> B_2  G_4 D_2'  
     e(  3 -  4) =      4.66662  eV     2   --> E    G_5 D_5   
     e(  5 -  5) =      7.67101  eV     1   --> A_1  G_1 D_1   
     e(  6 -  6) =      9.92098  eV     1   --> B_2  G_4 D_2'  
     e(  7 -  8) =     11.77153  eV     2   --> E    G_5 D_5   
     e(  9 -  9) =     14.12102  eV     1   --> B_2  G_4 D_2'  
     e( 10 - 10) =     15.13010  eV     1   --> A_2  G_2 D_1'  
     e( 11 - 11) =     17.42427  eV     1   --> A_1  G_1 D_1   
     e( 12 - 12) =     19.20200  eV     1   -->   ?

 **************************************************************************

 **************************************************************************

                    xk=(  -0.35355,   0.00000,   0.00000  )

     Band symmetry, C_4v (4mm)  point group:

     e(  1 -  1) =     -4.59514  eV     1   --> A_1  G_1 D_1   
     e(  2 -  2) =      2.87982  eV     1   --> B_2  G_4 D_2'  
     e(  3 -  4) =      4.46977  eV     2   --> E    G_5 D_5   
     e(  5 -  5) =      7.50872  eV     1   --> A_1  G_1 D_1   
     e(  6 -  6) =      9.52666  eV     1   --> B_2  G_4 D_2'  
     e(  7 -  8) =     12.21403  eV     2   --> E    G_5 D_5   
     e(  9 -  9) =     14.63958  eV     1   --> B_2  G_4 D_2'  
     e( 10 - 10) =     15.36253  eV     1   --> A_2  G_2 D_1'  
     e( 11 - 11) =     17.95515  eV     1   --> A_1  G_1 D_1   
     e( 12 - 12) =     19.49899  eV     1   -->   ?

 **************************************************************************

 **************************************************************************

                    xk=(  -0.38891,  -0.00000,   0.00000  )

     Band symmetry, C_4v (4mm)  point group:

     e(  1 -  1) =     -4.36783  eV     1   --> A_1  G_1 D_1   
     e(  2 -  2) =      2.42509  eV     1   --> B_2  G_4 D_2'  
     e(  3 -  4) =      4.28880  eV     2   --> E    G_5 D_5   
     e(  5 -  5) =      7.36253  eV     1   --> A_1  G_1 D_1   
     e(  6 -  6) =      9.14753  eV     1   --> B_2  G_4 D_2'  
     e(  7 -  8) =     12.66458  eV     2   --> E    G_5 D_5   
     e(  9 -  9) =     15.17659  eV     1   --> B_2  G_4 D_2'  
     e( 10 - 10) =     15.61921  eV     1   --> A_2  G_2 D_1'  
     e( 11 - 11) =     18.48833  eV     1   --> A_1  G_1 D_1   
     e( 12 - 12) =     19.77359  eV     1   -->   ?

 **************************************************************************

 **************************************************************************

                    xk=(  -0.42426,  -0.00000,   0.00000  )

     Band symmetry, C_4v (4mm)  point group:

     e(  1 -  1) =     -4.12034  eV     1   --> A_1  G_1 D_1   
     e(  2 -  2) =      1.97033  eV     1   --> B_2  G_4 D_2'  
     e(  3 -  4) =      4.12483  eV     2   --> E    G_5 D_5   
     e(  5 -  5) =      7.23489  eV     1   --> A_1  G_1 D_1   
     e(  6 -  6) =      8.79218  eV     1   --> B_2  G_4 D_2'  
     e(  7 -  8) =     13.12204  eV     2   --> E    G_5 D_5   
     e(  9 -  9) =     15.72157  eV     1   --> B_2  G_4 D_2'  
     e( 10 - 10) =     15.90008  eV     1   --> A_2  G_2 D_1'  
     e( 11 - 11) =     19.00836  eV     1   --> A_1  G_1 D_1   
     e( 12 - 12) =     19.97209  eV     1   -->   ?

 **************************************************************************

 **************************************************************************

                    xk=(  -0.45962,   0.00000,  -0.00000  )

     Band symmetry, C_4v (4mm)  point group:

     e(  1 -  1) =     -3.85312  eV     1   --> A_1  G_1 D_1   
     e(  2 -  2) =      1.51709  eV     1   --> B_2  G_4 D_2'  
     e(  3 -  4) =      3.97869  eV     2   --> E    G_5 D_5   
     e(  5 -  5) =      7.12776  eV     1   --> A_1  G_1 D_1   
     e(  6 -  6) =      8.46525  eV     1   --> B_2  G_4 D_2'  
     e(  7 -  8) =     13.58557  eV     2   --> E    G_5 D_5   
     e(  9 -  9) =     16.20505  eV     1   --> A_2  G_2 D_1'  
     e( 10 - 10) =     16.26728  eV     1   --> B_2  G_4 D_2'  
     e( 11 - 11) =     19.49342  eV     1   --> A_1  G_1 D_1   
     e( 12 - 12) =     20.01559  eV     1   -->   ?

 **************************************************************************

 **************************************************************************

                    xk=(  -0.49497,   0.00000,  -0.00000  )

     Band symmetry, C_4v (4mm)  point group:

     e(  1 -  1) =     -3.56669  eV     1   --> A_1  G_1 D_1   
     e(  2 -  2) =      1.06691  eV     1   --> B_2  G_4 D_2'  
     e(  3 -  4) =      3.85101  eV     2   --> E    G_5 D_5   
     e(  5 -  5) =      7.04287  eV     1   --> A_1  G_1 D_1   
     e(  6 -  6) =      8.16918  eV     1   --> B_2  G_4 D_2'  
     e(  7 -  8) =     14.05463  eV     2   --> E    G_5 D_5   
     e(  9 -  9) =     16.53351  eV     1   --> A_2  G_2 D_1'  
     e( 10 - 10) =     16.80816  eV     1   --> B_2  G_4 D_2'  
     e( 11 - 12) =     19.85473  eV     2   --> E    G_5 D_5   

 **************************************************************************

 **************************************************************************

                    xk=(  -0.53033,  -0.00000,   0.00000  )

     Band symmetry, C_4v (4mm)  point group:

     e(  1 -  1) =     -3.26164  eV     1   --> A_1  G_1 D_1   
     e(  2 -  2) =      0.62139  eV     1   --> B_2  G_4 D_2'  
     e(  3 -  4) =      3.74229  eV     2   --> E    G_5 D_5   
     e(  5 -  5) =      6.98158  eV     1   --> A_1  G_1 D_1   
     e(  6 -  6) =      7.90537  eV     1   --> B_2  G_4 D_2'  
     e(  7 -  8) =     14.52866  eV     2   --> E    G_5 D_5   
     e(  9 -  9) =     16.88635  eV     1   --> A_2  G_2 D_1'  
     e( 10 - 10) =     17.33933  eV     1   --> B_2  G_4 D_2'  
     e( 11 - 12) =     19.52561  eV     2   --> E    G_5 D_5   

 **************************************************************************

 **************************************************************************

                    xk=(  -0.56569,  -0.00000,   0.00000  )

     Band symmetry, C_4v (4mm)  point group:

     e(  1 -  1) =     -2.93862  eV     1   --> A_1  G_1 D_1   
     e(  2 -  2) =      0.18203  eV     1   --> B_2  G_4 D_2'  
     e(  3 -  4) =      3.65281  eV     2   --> E    G_5 D_5   
     e(  5 -  5) =      6.94505  eV     1   --> A_1  G_1 D_1   
     e(  6 -  6) =      7.67404  eV     1   --> B_2  G_4 D_2'  
     e(  7 -  8) =     15.00673  eV     2   --> E    G_5 D_5   
     e(  9 -  9) =     17.26291  eV     1   --> A_2  G_2 D_1'  
     e( 10 - 10) =     17.85637  eV     1   --> B_2  G_4 D_2'  
     e( 11 - 12) =     19.09899  eV     2   --> E    G_5 D_5   

 **************************************************************************

 **************************************************************************

                    xk=(  -0.60104,  -0.00000,   0.00000  )

     Band symmetry, C_4v (4mm)  point group:

     e(  1 -  1) =     -2.59839  eV     1   --> A_1  G_1 D_1   
     e(  2 -  2) =     -0.24955  eV     1   --> B_2  G_4 D_2'  
     e(  3 -  4) =      3.58301  eV     2   --> E    G_5 D_5   
     e(  5 -  5) =      6.93471  eV     1   --> A_1  G_1 D_1   
     e(  6 -  6) =      7.47547  eV     1   --> B_2  G_4 D_2'  
     e(  7 -  8) =     15.48665  eV     2   --> E    G_5 D_5   
     e(  9 -  9) =     17.66313  eV     1   --> A_2  G_2 D_1'  
     e( 10 - 10) =     18.35500  eV     1   --> B_2  G_4 D_2'  
     e( 11 - 12) =     18.62854  eV     2   --> E    G_5 D_5   

 **************************************************************************

 **************************************************************************

                    xk=(  -0.63640,  -0.00000,   0.00000  )

     Band symmetry, C_4v (4mm)  point group:

     e(  1 -  1) =     -2.24177  eV     1   --> A_1  G_1 D_1   
     e(  2 -  2) =     -0.67191  eV     1   --> B_2  G_4 D_2'  
     e(  3 -  4) =      3.53303  eV     2   --> E    G_5 D_5   
     e(  5 -  5) =      6.95152  eV     1   --> A_1  G_1 D_1   
     e(  6 -  6) =      7.30911  eV     1   --> B_2  G_4 D_2'  
     e(  7 -  8) =     15.96196  eV     2   --> E    G_5 D_5   
     e(  9 -  9) =     18.08682  eV     1   --> A_2  G_2 D_1'  
     e( 10 - 11) =     18.14744  eV     2   --> E    G_5 D_5   
     e( 12 - 12) =     18.82974  eV     1   --> B_2  G_4 D_2'  

 **************************************************************************

 **************************************************************************

                    xk=(  -0.67175,  -0.00000,   0.00000  )

     Band symmetry, C_4v (4mm)  point group:

     e(  1 -  1) =     -1.86973  eV     1   --> A_1  G_1 D_1   
     e(  2 -  2) =     -1.08361  eV     1   --> B_2  G_4 D_2'  
     e(  3 -  4) =      3.50298  eV     2   --> E    G_5 D_5   
     e(  5 -  5) =      6.99641  eV     1   --> A_1  G_1 D_1   
     e(  6 -  6) =      7.17433  eV     1   --> B_2  G_4 D_2'  
     e(  7 -  8) =     16.40603  eV     2   --> E    G_5 D_5   
     e(  9 - 10) =     17.69564  eV     2   --> E    G_5 D_5   
     e( 11 - 11) =     18.53378  eV     1   --> A_2  G_2 D_1'  
     e( 12 - 12) =     19.27315  eV     1   --> B_2  G_4 D_2'  

 **************************************************************************

 **************************************************************************

                    xk=(  -0.70711,   0.00000,   0.00000  )

     zone border point and non-symmorphic group 
     symmetry decomposition not available

 **************************************************************************

 **************************************************************************

                    xk=(  -0.70711,   0.00884,   0.00884  )

     zone border point and non-symmorphic group 
     symmetry decomposition not available

 **************************************************************************

 **************************************************************************

                    xk=(  -0.70711,   0.01768,   0.01768  )

     zone border point and non-symmorphic group 
     symmetry decomposition not available

 **************************************************************************

 **************************************************************************

                    xk=(  -0.70711,   0.02652,   0.02652  )

     zone border point and non-symmorphic group 
     symmetry decomposition not available

 **************************************************************************

 **************************************************************************

                    xk=(  -0.70711,   0.03536,   0.03536  )

     zone border point and non-symmorphic group 
     symmetry decomposition not available

 **************************************************************************

 **************************************************************************

                    xk=(  -0.70711,   0.04419,   0.04419  )

     zone border point and non-symmorphic group 
     symmetry decomposition not available

 **************************************************************************

 **************************************************************************

                    xk=(  -0.70711,   0.05303,   0.05303  )

     zone border point and non-symmorphic group 
     symmetry decomposition not available

 **************************************************************************

 **************************************************************************

                    xk=(  -0.70711,   0.06187,   0.06187  )

     zone border point and non-symmorphic group 
     symmetry decomposition not available

 **************************************************************************

 **************************************************************************

                    xk=(  -0.70711,   0.07071,   0.07071  )

     zone border point and non-symmorphic group 
     symmetry decomposition not available

 **************************************************************************

 **************************************************************************

                    xk=(  -0.70711,   0.07955,   0.07955  )

     zone border point and non-symmorphic group 
     symmetry decomposition not available

 **************************************************************************

 **************************************************************************

                    xk=(  -0.70711,   0.08839,   0.08839  )

     zone border point and non-symmorphic group 
     symmetry decomposition not available

 **************************************************************************

 **************************************************************************

                    xk=(  -0.70711,   0.09723,   0.09723  )

     zone border point and non-symmorphic group 
     symmetry decomposition not available

 **************************************************************************

 **************************************************************************

                    xk=(  -0.70711,   0.10607,   0.10607  )

     zone border point and non-symmorphic group 
     symmetry decomposition not available

 **************************************************************************

 **************************************************************************

                    xk=(  -0.70711,   0.11490,   0.11490  )

     zone border point and non-symmorphic group 
     symmetry decomposition not available

 **************************************************************************

 **************************************************************************

                    xk=(  -0.70711,   0.12374,   0.12374  )

     zone border point and non-symmorphic group 
     symmetry decomposition not available

 **************************************************************************

 **************************************************************************

                    xk=(  -0.70711,   0.13258,   0.13258  )

     zone border point and non-symmorphic group 
     symmetry decomposition not available

 **************************************************************************

 **************************************************************************

                    xk=(  -0.70711,   0.14142,   0.14142  )

     zone border point and non-symmorphic group 
     symmetry decomposition not available

 **************************************************************************

 **************************************************************************

                    xk=(  -0.70711,   0.15026,   0.15026  )

     zone border point and non-symmorphic group 
     symmetry decomposition not available

 **************************************************************************

 **************************************************************************

                    xk=(  -0.70711,   0.15910,   0.15910  )

     zone border point and non-symmorphic group 
     symmetry decomposition not available

 **************************************************************************

 **************************************************************************

                    xk=(  -0.70711,   0.16794,   0.16794  )

     zone border point and non-symmorphic group 
     symmetry decomposition not available

 **************************************************************************

 **************************************************************************

                    xk=(  -0.70711,   0.17678,   0.17678  )

     zone border point and non-symmorphic group 
     symmetry decomposition not available

 **************************************************************************

 **************************************************************************

                    xk=(  -0.53033,   0.53033,   0.00000  )

     Band symmetry, C_2v (mm2)  point group:

     e(  1 -  1) =     -1.89578  eV     1   --> A_1  D_1  S_1  
     e(  2 -  2) =     -0.88661  eV     1   --> B_1  D_3  S_3  
     e(  3 -  3) =      2.00524  eV     1   --> A_1  D_1  S_1  
     e(  4 -  4) =      3.92761  eV     1   --> A_2  D_2  S_2  
     e(  5 -  5) =      7.57470  eV     1   --> B_1  D_3  S_3  
     e(  6 -  6) =     10.54118  eV     1   --> A_1  D_1  S_1  
     e(  7 -  7) =     13.94403  eV     1   --> B_2  D_4  S_4  
     e(  8 -  8) =     14.49846  eV     1   --> A_1  D_1  S_1  
     e(  9 -  9) =     14.76642  eV     1   --> B_1  D_3  S_3  
     e( 10 - 10) =     14.94072  eV     1   --> A_2  D_2  S_2  
     e( 11 - 11) =     21.34560  eV     1   --> B_1  D_3  S_3  
     e( 12 - 12) =     21.39462  eV     1   --> A_2  D_2  S_2  

 **************************************************************************

 **************************************************************************

                    xk=(  -0.50381,   0.50381,  -0.00000  )

     Band symmetry, C_2v (mm2)  point group:

     e(  1 -  1) =     -2.08654  eV     1   --> A_1  D_1  S_1  
     e(  2 -  2) =     -0.69498  eV     1   --> B_1  D_3  S_3  
     e(  3 -  3) =      1.90941  eV     1   --> A_1  D_1  S_1  
     e(  4 -  4) =      4.06205  eV     1   --> A_2  D_2  S_2  
     e(  5 -  5) =      7.73118  eV     1   --> B_1  D_3  S_3  
     e(  6 -  6) =     11.31087  eV     1   --> A_1  D_1  S_1  
     e(  7 -  7) =     13.47949  eV     1   --> B_2  D_4  S_4  
     e(  8 -  8) =     14.03828  eV     1   --> A_1  D_1  S_1  
     e(  9 -  9) =     14.39355  eV     1   --> B_1  D_3  S_3  
     e( 10 - 10) =     14.54118  eV     1   --> A_2  D_2  S_2  
     e( 11 - 11) =     21.33593  eV     1   --> B_1  D_3  S_3  
     e( 12 - 12) =     21.77504  eV     1   --> A_2  D_2  S_2  

 **************************************************************************

 **************************************************************************

                    xk=(  -0.47730,   0.47730,  -0.00000  )

     Band symmetry, C_2v (mm2)  point group:

     e(  1 -  1) =     -2.31535  eV     1   --> A_1  D_1  S_1  
     e(  2 -  2) =     -0.47712  eV     1   --> B_1  D_3  S_3  
     e(  3 -  3) =      1.88859  eV     1   --> A_1  D_1  S_1  
     e(  4 -  4) =      4.21154  eV     1   --> A_2  D_2  S_2  
     e(  5 -  5) =      7.90531  eV     1   --> B_1  D_3  S_3  
     e(  6 -  6) =     12.06631  eV     1   --> A_1  D_1  S_1  
     e(  7 -  7) =     13.03239  eV     1   --> B_2  D_4  S_4  
     e(  8 -  8) =     13.64029  eV     1   --> A_1  D_1  S_1  
     e(  9 -  9) =     14.03182  eV     1   --> B_1  D_3  S_3  
     e( 10 - 10) =     14.16620  eV     1   --> A_2  D_2  S_2  
     e( 11 - 11) =     20.98035  eV     1   --> B_1  D_3  S_3  
     e( 12 - 12) =     21.57517  eV     1   --> A_1  D_1  S_1  

 **************************************************************************

 **************************************************************************

                    xk=(  -0.45078,   0.45078,  -0.00000  )

     Band symmetry, C_2v (mm2)  point group:

     e(  1 -  1) =     -2.57361  eV     1   --> A_1  D_1  S_1  
     e(  2 -  2) =     -0.23323  eV     1   --> B_1  D_3  S_3  
     e(  3 -  3) =      1.93702  eV     1   --> A_1  D_1  S_1  
     e(  4 -  4) =      4.37435  eV     1   --> A_2  D_2  S_2  
     e(  5 -  5) =      8.09473  eV     1   --> B_1  D_3  S_3  
     e(  6 -  6) =     12.59712  eV     1   --> A_1  D_1  S_1  
     e(  7 -  7) =     12.60476  eV     1   --> B_2  D_4  S_4  
     e(  8 -  8) =     13.50873  eV     1   --> A_1  D_1  S_1  
     e(  9 -  9) =     13.68642  eV     1   --> B_1  D_3  S_3  
     e( 10 - 10) =     13.81928  eV     1   --> A_2  D_2  S_2  
     e( 11 - 11) =     20.55875  eV     1   --> B_1  D_3  S_3  
     e( 12 - 12) =     21.14698  eV     1   --> A_1  D_1  S_1  

 **************************************************************************

 **************************************************************************

                    xk=(  -0.42426,   0.42426,  -0.00000  )

     Band symmetry, C_2v (mm2)  point group:

     e(  1 -  1) =     -2.85105  eV     1   --> A_1  D_1  S_1  
     e(  2 -  2) =      0.03645  eV     1   --> B_1  D_3  S_3  
     e(  3 -  3) =      2.04618  eV     1   --> A_1  D_1  S_1  
     e(  4 -  4) =      4.54831  eV     1   --> A_2  D_2  S_2  
     e(  5 -  5) =      8.29636  eV     1   --> B_1  D_3  S_3  
     e(  6 -  6) =     12.19804  eV     1   --> B_2  D_4  S_4  
     e(  7 -  7) =     12.48455  eV     1   --> A_1  D_1  S_1  
     e(  8 -  8) =     13.36208  eV     1   --> B_1  D_3  S_3  
     e(  9 -  9) =     13.50420  eV     1   --> A_2  D_2  S_2  
     e( 10 - 10) =     14.05429  eV     1   --> A_1  D_1  S_1  
     e( 11 - 11) =     20.14234  eV     1   --> B_1  D_3  S_3  
     e( 12 - 12) =     20.74967  eV     1   --> A_1  D_1  S_1  

 **************************************************************************

 **************************************************************************

                    xk=(  -0.39775,   0.39775,   0.00000  )

     Band symmetry, C_2v (mm2)  point group:

     e(  1 -  1) =     -3.13795  eV     1   --> A_1  D_1  S_1  
     e(  2 -  2) =      0.33159  eV     1   --> B_1  D_3  S_3  
     e(  3 -  3) =      2.20726  eV     1   --> A_1  D_1  S_1  
     e(  4 -  4) =      4.73092  eV     1   --> A_2  D_2  S_2  
     e(  5 -  5) =      8.50601  eV     1   --> B_1  D_3  S_3  
     e(  6 -  6) =     11.81330  eV     1   --> B_2  D_4  S_4  
     e(  7 -  7) =     12.15283  eV     1   --> A_1  D_1  S_1  
     e(  8 -  8) =     13.06369  eV     1   --> B_1  D_3  S_3  
     e(  9 -  9) =     13.22427  eV     1   --> A_2  D_2  S_2  
     e( 10 - 10) =     14.83913  eV     1   --> A_1  D_1  S_1  
     e( 11 - 11) =     19.74472  eV     1   --> B_1  D_3  S_3  
     e( 12 - 12) =     20.39612  eV     1   --> A_1  D_1  S_1  

 **************************************************************************

 **************************************************************************

                    xk=(  -0.37123,   0.37123,   0.00000  )

     Band symmetry, C_2v (mm2)  point group:

     e(  1 -  1) =     -3.42607  eV     1   --> A_1  D_1  S_1  
     e(  2 -  2) =      0.65184  eV     1   --> B_1  D_3  S_3  
     e(  3 -  3) =      2.41240  eV     1   --> A_1  D_1  S_1  
     e(  4 -  4) =      4.91902  eV     1   --> A_2  D_2  S_2  
     e(  5 -  5) =      8.71788  eV     1   --> B_1  D_3  S_3  
     e(  6 -  6) =     11.45117  eV     1   --> B_2  D_4  S_4  
     e(  7 -  7) =     11.80277  eV     1   --> A_1  D_1  S_1  
     e(  8 -  8) =     12.79661  eV     1   --> B_1  D_3  S_3  
     e(  9 -  9) =     12.98297  eV     1   --> A_2  D_2  S_2  
     e( 10 - 10) =     15.63698  eV     1   --> A_1  D_1  S_1  
     e( 11 - 11) =     19.36882  eV     1   --> B_1  D_3  S_3  
     e( 12 - 12) =     20.10833  eV     1   --> A_1  D_1  S_1  

 **************************************************************************

 **************************************************************************

                    xk=(  -0.34471,   0.34471,   0.00000  )

     Band symmetry, C_2v (mm2)  point group:

     e(  1 -  1) =     -3.70895  eV     1   --> A_1  D_1  S_1  
     e(  2 -  2) =      0.99679  eV     1   --> B_1  D_3  S_3  
     e(  3 -  3) =      2.65498  eV     1   --> A_1  D_1  S_1  
     e(  4 -  4) =      5.10917  eV     1   --> A_2  D_2  S_2  
     e(  5 -  5) =      8.92436  eV     1   --> B_1  D_3  S_3  
     e(  6 -  6) =     11.11252  eV     1   --> B_2  D_4  S_4  
     e(  7 -  7) =     11.46389  eV     1   --> A_1  D_1  S_1  
     e(  8 -  8) =     12.56716  eV     1   --> B_1  D_3  S_3  
     e(  9 -  9) =     12.78445  eV     1   --> A_2  D_2  S_2  
     e( 10 - 10) =     16.36726  eV     1   --> A_1  D_1  S_1  
     e( 11 - 11) =     19.00495  eV     1   --> B_1  D_3  S_3  
     e( 12 - 12) =     19.45702  eV     1   --> B_1  D_3  S_3  

 **************************************************************************

 **************************************************************************

                    xk=(  -0.31820,   0.31820,  -0.00000  )

     Band symmetry, C_2v (mm2)  point group:

     e(  1 -  1) =     -3.98164  eV     1   --> A_1  D_1  S_1  
     e(  2 -  2) =      1.36593  eV     1   --> B_1  D_3  S_3  
     e(  3 -  3) =      2.92941  eV     1   --> A_1  D_1  S_1  
     e(  4 -  4) =      5.29734  eV     1   --> A_2  D_2  S_2  
     e(  5 -  5) =      9.11549  eV     1   --> B_1  D_3  S_3  
     e(  6 -  6) =     10.79770  eV     1   --> B_2  D_4  S_4  
     e(  7 -  7) =     11.14303  eV     1   --> A_1  D_1  S_1  
     e(  8 -  8) =     12.38232  eV     1   --> B_1  D_3  S_3  
     e(  9 -  9) =     12.63236  eV     1   --> A_2  D_2  S_2  
     e( 10 - 10) =     16.92593  eV     1   --> A_1  D_1  S_1  
     e( 11 - 11) =     18.45980  eV     1   --> B_1  D_3  S_3  
     e( 12 - 12) =     18.78654  eV     1   --> B_1  D_3  S_3  

 **************************************************************************

 **************************************************************************

                    xk=(  -0.29168,   0.29168,  -0.00000  )

     Band symmetry, C_2v (mm2)  point group:

     e(  1 -  1) =     -4.24042  eV     1   --> A_1  D_1  S_1  
     e(  2 -  2) =      1.75850  eV     1   --> B_1  D_3  S_3  
     e(  3 -  3) =      3.23080  eV     1   --> A_1  D_1  S_1  
     e(  4 -  4) =      5.47932  eV     1   --> A_2  D_2  S_2  
     e(  5 -  5) =      9.27963  eV     1   --> B_1  D_3  S_3  
     e(  6 -  6) =     10.50715  eV     1   --> B_2  D_4  S_4  
     e(  7 -  7) =     10.84261  eV     1   --> A_1  D_1  S_1  
     e(  8 -  8) =     12.24888  eV     1   --> B_1  D_3  S_3  
     e(  9 -  9) =     12.53071  eV     1   --> A_2  D_2  S_2  
     e( 10 - 10) =     17.20198  eV     1   --> A_1  D_1  S_1  
     e( 11 - 11) =     17.62157  eV     1   --> B_1  D_3  S_3  
     e( 12 - 12) =     18.46644  eV     1   --> B_1  D_3  S_3  

 **************************************************************************

 **************************************************************************

                    xk=(  -0.26517,   0.26517,   0.00000  )

     Band symmetry, C_2v (mm2)  point group:

     e(  1 -  1) =     -4.48250  eV     1   --> A_1  D_1  S_1  
     e(  2 -  2) =      2.17370  eV     1   --> B_1  D_3  S_3  
     e(  3 -  3) =      3.55458  eV     1   --> A_1  D_1  S_1  
     e(  4 -  4) =      5.65068  eV     1   --> A_2  D_2  S_2  
     e(  5 -  5) =      9.40507  eV     1   --> B_1  D_3  S_3  
     e(  6 -  6) =     10.24108  eV     1   --> B_2  D_4  S_4  
     e(  7 -  7) =     10.56330  eV     1   --> A_1  D_1  S_1  
     e(  8 -  8) =     12.16997  eV     1   --> B_1  D_3  S_3  
     e(  9 -  9) =     12.48291  eV     1   --> A_2  D_2  S_2  
     e( 10 - 10) =     16.78706  eV     1   --> B_1  D_3  S_3  
     e( 11 - 11) =     17.19884  eV     1   --> A_1  D_1  S_1  
     e( 12 - 12) =     18.21041  eV     1   --> B_1  D_3  S_3  

 **************************************************************************

 **************************************************************************

                    xk=(  -0.23865,   0.23865,   0.00000  )

     Band symmetry, C_2v (mm2)  point group:

     e(  1 -  1) =     -4.70576  eV     1   --> A_1  D_1  S_1  
     e(  2 -  2) =      2.61036  eV     1   --> B_1  D_3  S_3  
     e(  3 -  3) =      3.89614  eV     1   --> A_1  D_1  S_1  
     e(  4 -  4) =      5.80746  eV     1   --> A_2  D_2  S_2  
     e(  5 -  5) =      9.48428  eV     1   --> B_1  D_3  S_3  
     e(  6 -  6) =      9.99967  eV     1   --> B_2  D_4  S_4  
     e(  7 -  7) =     10.30511  eV     1   --> A_1  D_1  S_1  
     e(  8 -  8) =     12.13873  eV     1   --> B_1  D_3  S_3  
     e(  9 -  9) =     12.49174  eV     1   --> A_2  D_2  S_2  
     e( 10 - 10) =     15.99575  eV     1   --> B_1  D_3  S_3  
     e( 11 - 11) =     17.01580  eV     1   --> A_1  D_1  S_1  
     e( 12 - 12) =     17.99461  eV     1   --> B_1  D_3  S_3  

 **************************************************************************

 **************************************************************************

                    xk=(  -0.21213,   0.21213,   0.00000  )

     Band symmetry, C_2v (mm2)  point group:

     e(  1 -  1) =     -4.90859  eV     1   --> A_1  D_1  S_1  
     e(  2 -  2) =      3.06694  eV     1   --> B_1  D_3  S_3  
     e(  3 -  3) =      4.25053  eV     1   --> A_1  D_1  S_1  
     e(  4 -  4) =      5.94641  eV     1   --> A_2  D_2  S_2  
     e(  5 -  5) =      9.51712  eV     1   --> B_1  D_3  S_3  
     e(  6 -  6) =      9.78329  eV     1   --> B_2  D_4  S_4  
     e(  7 -  7) =     10.06775  eV     1   --> A_1  D_1  S_1  
     e(  8 -  8) =     12.12920  eV     1   --> B_1  D_3  S_3  
     e(  9 -  9) =     12.55858  eV     1   --> A_2  D_2  S_2  
     e( 10 - 10) =     15.27414  eV     1   --> B_1  D_3  S_3  
     e( 11 - 11) =     16.72987  eV     1   --> A_1  D_1  S_1  
     e( 12 - 12) =     17.81863  eV     1   --> B_1  D_3  S_3  

 **************************************************************************

 **************************************************************************

                    xk=(  -0.18562,   0.18562,   0.00000  )

     Band symmetry, C_2v (mm2)  point group:

     e(  1 -  1) =     -5.08976  eV     1   --> A_1  D_1  S_1  
     e(  2 -  2) =      3.54122  eV     1   --> B_1  D_3  S_3  
     e(  3 -  3) =      4.61192  eV     1   --> A_1  D_1  S_1  
     e(  4 -  4) =      6.06544  eV     1   --> A_2  D_2  S_2  
     e(  5 -  5) =      9.51079  eV     1   --> B_1  D_3  S_3  
     e(  6 -  6) =      9.59208  eV     1   --> B_2  D_4  S_4  
     e(  7 -  7) =      9.85067  eV     1   --> A_1  D_1  S_1  
     e(  8 -  8) =     12.08702  eV     1   --> B_1  D_3  S_3  
     e(  9 -  9) =     12.68277  eV     1   --> A_2  D_2  S_2  
     e( 10 - 10) =     14.66657  eV     1   --> B_1  D_3  S_3  
     e( 11 - 11) =     16.38122  eV     1   --> A_1  D_1  S_1  
     e( 12 - 12) =     17.68458  eV     1   --> B_1  D_3  S_3  

 **************************************************************************

 **************************************************************************

                    xk=(  -0.15910,   0.15910,  -0.00000  )

     Band symmetry, C_2v (mm2)  point group:

     e(  1 -  1) =     -5.24830  eV     1   --> A_1  D_1  S_1  
     e(  2 -  2) =      4.02997  eV     1   --> B_1  D_3  S_3  
     e(  3 -  3) =      4.97318  eV     1   --> A_1  D_1  S_1  
     e(  4 -  4) =      6.16382  eV     1   --> A_2  D_2  S_2  
     e(  5 -  5) =      9.42611  eV     1   --> B_2  D_4  S_4  
     e(  6 -  6) =      9.47588  eV     1   --> B_1  D_3  S_3  
     e(  7 -  7) =      9.65312  eV     1   --> A_1  D_1  S_1  
     e(  8 -  8) =     11.93148  eV     1   --> B_1  D_3  S_3  
     e(  9 -  9) =     12.86081  eV     1   --> A_2  D_2  S_2  
     e( 10 - 10) =     14.23871  eV     1   --> B_1  D_3  S_3  
     e( 11 - 11) =     15.99677  eV     1   --> A_1  D_1  S_1  
     e( 12 - 12) =     17.59494  eV     1   --> B_1  D_3  S_3  

 **************************************************************************

 **************************************************************************

                    xk=(  -0.13258,   0.13258,   0.00000  )

     Band symmetry, C_2v (mm2)  point group:

     e(  1 -  1) =     -5.38350  eV     1   --> A_1  D_1  S_1  
     e(  2 -  2) =      4.52782  eV     1   --> B_1  D_3  S_3  
     e(  3 -  3) =      5.32509  eV     1   --> A_1  D_1  S_1  
     e(  4 -  4) =      6.24205  eV     1   --> A_2  D_2  S_2  
     e(  5 -  5) =      9.28553  eV     1   --> B_2  D_4  S_4  
     e(  6 -  6) =      9.42167  eV     1   --> B_1  D_3  S_3  
     e(  7 -  7) =      9.47444  eV     1   --> A_1  D_1  S_1  
     e(  8 -  8) =     11.61046  eV     1   --> B_1  D_3  S_3  
     e(  9 -  9) =     13.08552  eV     1   --> A_2  D_2  S_2  
     e( 10 - 10) =     14.02883  eV     1   --> B_1  D_3  S_3  
     e( 11 - 11) =     15.60330  eV     1   --> A_1  D_1  S_1  
     e( 12 - 12) =     17.55124  eV     1   --> B_1  D_3  S_3  

 **************************************************************************

 **************************************************************************

                    xk=(  -0.10607,   0.10607,   0.00000  )

     Band symmetry, C_2v (mm2)  point group:

     e(  1 -  1) =     -5.49479  eV     1   --> A_1  D_1  S_1  
     e(  2 -  2) =      5.02579  eV     1   --> B_1  D_3  S_3  
     e(  3 -  3) =      5.65562  eV     1   --> A_1  D_1  S_1  
     e(  4 -  4) =      6.30170  eV     1   --> A_2  D_2  S_2  
     e(  5 -  5) =      9.17038  eV     1   --> B_2  D_4  S_4  
     e(  6 -  6) =      9.31488  eV     1   --> A_1  D_1  S_1  
     e(  7 -  7) =      9.35283  eV     1   --> B_1  D_3  S_3  
     e(  8 -  8) =     11.16852  eV     1   --> B_1  D_3  S_3  
     e(  9 -  9) =     13.34408  eV     1   --> A_2  D_2  S_2  
     e( 10 - 10) =     13.98592  eV     1   --> B_1  D_3  S_3  
     e( 11 - 11) =     15.22929  eV     1   --> A_1  D_1  S_1  
     e( 12 - 12) =     17.55175  eV     1   --> B_1  D_3  S_3  

 **************************************************************************

 **************************************************************************

                    xk=(  -0.07955,   0.07955,  -0.00000  )

     Band symmetry, C_2v (mm2)  point group:

     e(  1 -  1) =     -5.58175  eV     1   --> A_1  D_1  S_1  
     e(  2 -  2) =      5.50765  eV     1   --> B_1  D_3  S_3  
     e(  3 -  3) =      5.94901  eV     1   --> A_1  D_1  S_1  
     e(  4 -  4) =      6.34494  eV     1   --> A_2  D_2  S_2  
     e(  5 -  5) =      9.08078  eV     1   --> B_2  D_4  S_4  
     e(  6 -  6) =      9.17688  eV     1   --> A_1  D_1  S_1  
     e(  7 -  7) =      9.26681  eV     1   --> B_1  D_3  S_3  
     e(  8 -  8) =     10.70191  eV     1   --> B_1  D_3  S_3  
     e(  9 -  9) =     13.61712  eV     1   --> A_2  D_2  S_2  
     e( 10 - 10) =     14.02277  eV     1   --> B_1  D_3  S_3  
     e( 11 - 11) =     14.90258  eV     1   --> A_1  D_1  S_1  
     e( 12 - 12) =     17.58877  eV     1   --> B_1  D_3  S_3  

 **************************************************************************

 **************************************************************************

                    xk=(  -0.05303,   0.05303,   0.00000  )

     Band symmetry, C_2v (mm2)  point group:

     e(  1 -  1) =     -5.64407  eV     1   --> A_1  D_1  S_1  
     e(  2 -  2) =      5.94205  eV     1   --> B_1  D_3  S_3  
     e(  3 -  3) =      6.18518  eV     1   --> A_1  D_1  S_1  
     e(  4 -  4) =      6.37390  eV     1   --> A_2  D_2  S_2  
     e(  5 -  5) =      9.01674  eV     1   --> B_2  D_4  S_4  
     e(  6 -  6) =      9.06596  eV     1   --> A_1  D_1  S_1  
     e(  7 -  7) =      9.15506  eV     1   --> B_1  D_3  S_3  
     e(  8 -  8) =     10.30371  eV     1   --> B_1  D_3  S_3  
     e(  9 -  9) =     13.87292  eV     1   --> A_2  D_2  S_2  
     e( 10 - 10) =     14.07853  eV     1   --> B_1  D_3  S_3  
     e( 11 - 11) =     14.64818  eV     1   --> A_1  D_1  S_1  
     e( 12 - 12) =     17.64552  eV     1   --> B_1  D_3  S_3  

 **************************************************************************

 **************************************************************************

                    xk=(  -0.02652,   0.02652,  -0.00000  )

     Band symmetry, C_2v (mm2)  point group:

     e(  1 -  1) =     -5.68155  eV     1   --> A_1  D_1  S_1  
     e(  2 -  2) =      6.26870  eV     1   --> B_1  D_3  S_3  
     e(  3 -  3) =      6.34104  eV     1   --> A_1  D_1  S_1  
     e(  4 -  4) =      6.39049  eV     1   --> A_2  D_2  S_2  
     e(  5 -  5) =      8.97831  eV     1   --> B_2  D_4  S_4  
     e(  6 -  6) =      8.99188  eV     1   --> A_1  D_1  S_1  
     e(  7 -  7) =      9.02881  eV     1   --> B_1  D_3  S_3  
     e(  8 -  8) =     10.05002  eV     1   --> B_1  D_3  S_3  
     e(  9 -  9) =     14.06426  eV     1   --> A_2  D_2  S_2  
     e( 10 - 10) =     14.12133  eV     1   --> B_1  D_3  S_3  
     e( 11 - 11) =     14.48643  eV     1   --> A_1  D_1  S_1  
     e( 12 - 12) =     17.69700  eV     1   --> B_1  D_3  S_3  

 **************************************************************************

 **************************************************************************

                    xk=(   0.00000,   0.00000,   0.00000  )

     point group O_h (m-3m) 
     there are 10 classes
     the character table:

       E     8C3   3C2   6C4   6C2'  i     8S6   3s_h  6S4   6s_d 
A_1g   1.00  1.00  1.00  1.00  1.00  1.00  1.00  1.00  1.00  1.00
A_2g   1.00  1.00  1.00 -1.00 -1.00  1.00  1.00  1.00 -1.00 -1.00
E_g    2.00 -1.00  2.00  0.00  0.00  2.00 -1.00  2.00  0.00  0.00
T_1g   3.00  0.00 -1.00  1.00 -1.00  3.00  0.00 -1.00  1.00 -1.00
T_2g   3.00  0.00 -1.00 -1.00  1.00  3.00  0.00 -1.00 -1.00  1.00
A_1u   1.00  1.00  1.00  1.00  1.00 -1.00 -1.00 -1.00 -1.00 -1.00
A_2u   1.00  1.00  1.00 -1.00 -1.00 -1.00 -1.00 -1.00  1.00  1.00
E_u    2.00 -1.00  2.00  0.00  0.00 -2.00  1.00 -2.00  0.00  0.00
T_1u   3.00  0.00 -1.00  1.00 -1.00 -3.00  0.00  1.00 -1.00  1.00
T_2u   3.00  0.00 -1.00 -1.00  1.00 -3.00  0.00  1.00  1.00 -1.00

     the symmetry operations in each class and the name of the first element:

     E        1
                                                                 
     8C3     17   19   20   18   24   21   22   23
                                                                 
     3C2      2    4    3
                                                                 
     6C4      7    8   15   16   12   11
                                                                 
     6C2'     5    6   14   13   10    9
                                                                 
     i       25
                                                                 
     8S6     41   43   44   42   48   45   46   47
                                                                 
     3s_h    26   28   27
                                                                 
     6S4     31   32   39   40   36   35
                                                                 
     6s_d    29   30   38   37   34   33
                                                                 

     Band symmetry, O_h (m-3m)  point group:

     e(  1 -  1) =     -5.69405  eV     1   --> A_1g G_1   G_1+
     e(  2 -  4) =      6.39586  eV     3   --> T_2g G_25' G_5+
     e(  5 -  7) =      8.96549  eV     3   --> T_1u G_15  G_4-
     e(  8 -  8) =      9.96724  eV     1   --> A_2u G_2'  G_2-
     e(  9 - 10) =     14.13693  eV     2   --> E_u  G_12' G_3-
     e( 11 - 11) =     14.43091  eV     1   --> A_1g G_1   G_1+
     e( 12 - 12) =     17.71784  eV     1   -->   ?

 **************************************************************************

 **************************************************************************

                    xk=(  -0.01768,   0.01768,   0.01768  )

     point group C_3v (3m)  
     there are  3 classes
     the character table:

       E     2C3   3s_v 
A_1    1.00  1.00  1.00
A_2    1.00  1.00 -1.00
E      2.00 -1.00  0.00

     the symmetry operations in each class and the name of the first element:

     E        1
                                                                 
     2C3      2    3
                                                                 
     3s_v     4    5    6
                                                                 

     Band symmetry, C_3v (3m)   point group:

     e(  1 -  1) =     -5.68571  eV     1   --> A_1  L_1       
     e(  2 -  2) =      6.29896  eV     1   --> A_1  L_1       
     e(  3 -  4) =      6.38129  eV     2   --> E    L_3       
     e(  5 -  6) =      8.98677  eV     2   --> E    L_3       
     e(  7 -  7) =      8.99217  eV     1   --> A_1  L_1       
     e(  8 -  8) =     10.02269  eV     1   --> A_1  L_1       
     e(  9 - 10) =     14.10715  eV     2   --> E    L_3       
     e( 11 - 11) =     14.46801  eV     1   --> A_1  L_1       
     e( 12 - 12) =     17.68262  eV     1   --> A_1  L_1       

 **************************************************************************

 **************************************************************************

                    xk=(  -0.03536,   0.03536,   0.03536  )

     Band symmetry, C_3v (3m)   point group:

     e(  1 -  1) =     -5.66072  eV     1   --> A_1  L_1       
     e(  2 -  2) =      6.03850  eV     1   --> A_1  L_1       
     e(  3 -  4) =      6.33930  eV     2   --> E    L_3       
     e(  5 -  5) =      9.03549  eV     1   --> A_1  L_1       
     e(  6 -  7) =      9.04824  eV     2   --> E    L_3       
     e(  8 -  8) =     10.19660  eV     1   --> A_1  L_1       
     e(  9 - 10) =     14.02478  eV     2   --> E    L_3       
     e( 11 - 11) =     14.57699  eV     1   --> A_1  L_1       
     e( 12 - 12) =     17.58466  eV     1   --> A_1  L_1       

 **************************************************************************

 **************************************************************************

                    xk=(  -0.05303,   0.05303,   0.05303  )

     Band symmetry, C_3v (3m)   point group:

     e(  1 -  1) =     -5.61914  eV     1   --> A_1  L_1       
     e(  2 -  2) =      5.67239  eV     1   --> A_1  L_1       
     e(  3 -  4) =      6.27463  eV     2   --> E    L_3       
     e(  5 -  5) =      9.04492  eV     1   --> A_1  L_1       
     e(  6 -  7) =      9.14352  eV     2   --> E    L_3       
     e(  8 -  8) =     10.48477  eV     1   --> A_1  L_1       
     e(  9 - 10) =     13.90711  eV     2   --> E    L_3       
     e( 11 - 11) =     14.75065  eV     1   --> A_1  L_1       
     e( 12 - 12) =     17.44415  eV     1   --> A_1  L_1       

 **************************************************************************

 **************************************************************************

                    xk=(  -0.07071,   0.07071,   0.07071  )

     Band symmetry, C_3v (3m)   point group:

     e(  1 -  1) =     -5.56109  eV     1   --> A_1  L_1       
     e(  2 -  2) =      5.24660  eV     1   --> A_1  L_1       
     e(  3 -  4) =      6.19324  eV     2   --> E    L_3       
     e(  5 -  5) =      9.01143  eV     1   --> A_1  L_1       
     e(  6 -  7) =      9.26356  eV     2   --> E    L_3       
     e(  8 -  8) =     10.85466  eV     1   --> A_1  L_1       
     e(  9 - 10) =     13.77483  eV     2   --> E    L_3       
     e( 11 - 11) =     14.97535  eV     1   --> A_1  L_1       
     e( 12 - 12) =     17.28868  eV     1   --> A_1  L_1       

 **************************************************************************

 **************************************************************************

                    xk=(  -0.08839,   0.08839,   0.08839  )

     Band symmetry, C_3v (3m)   point group:

     e(  1 -  1) =     -5.48672  eV     1   --> A_1  L_1       
     e(  2 -  2) =      4.78924  eV     1   --> A_1  L_1       
     e(  3 -  4) =      6.10107  eV     2   --> E    L_3       
     e(  5 -  5) =      8.94721  eV     1   --> A_1  L_1       
     e(  6 -  7) =      9.39795  eV     2   --> E    L_3       
     e(  8 -  8) =     11.27105  eV     1   --> A_1  L_1       
     e(  9 - 10) =     13.64757  eV     2   --> E    L_3       
     e( 11 - 11) =     15.22625  eV     1   --> A_1  L_1       
     e( 12 - 12) =     17.15390  eV     1   --> A_1  L_1       

 **************************************************************************

 **************************************************************************

                    xk=(  -0.10607,   0.10607,   0.10607  )

     Band symmetry, C_3v (3m)   point group:

     e(  1 -  1) =     -5.39626  eV     1   --> A_1  L_1       
     e(  2 -  2) =      4.31661  eV     1   --> A_1  L_1       
     e(  3 -  4) =      6.00327  eV     2   --> E    L_3       
     e(  5 -  5) =      8.86443  eV     1   --> A_1  L_1       
     e(  6 -  7) =      9.53570  eV     2   --> E    L_3       
     e(  8 -  8) =     11.71017  eV     1   --> A_1  L_1       
     e(  9 - 10) =     13.54256  eV     2   --> E    L_3       
     e( 11 - 11) =     15.45720  eV     1   --> A_1  L_1       
     e( 12 - 12) =     17.09281  eV     1   --> A_1  L_1       

 **************************************************************************

 **************************************************************************

                    xk=(  -0.12374,   0.12374,   0.12374  )

     Band symmetry, C_3v (3m)   point group:

     e(  1 -  1) =     -5.29001  eV     1   --> A_1  L_1       
     e(  2 -  2) =      3.83904  eV     1   --> A_1  L_1       
     e(  3 -  4) =      5.90392  eV     2   --> E    L_3       
     e(  5 -  5) =      8.77185  eV     1   --> A_1  L_1       
     e(  6 -  7) =      9.66561  eV     2   --> E    L_3       
     e(  8 -  8) =     12.15775  eV     1   --> A_1  L_1       
     e(  9 - 10) =     13.47509  eV     2   --> E    L_3       
     e( 11 - 11) =     15.59983  eV     1   --> A_1  L_1       
     e( 12 - 12) =     17.17736  eV     1   --> A_1  L_1       

 **************************************************************************

 **************************************************************************

                    xk=(  -0.14142,   0.14142,   0.14142  )

     Band symmetry, C_3v (3m)   point group:

     e(  1 -  1) =     -5.16840  eV     1   --> A_1  L_1       
     e(  2 -  2) =      3.36282  eV     1   --> A_1  L_1       
     e(  3 -  4) =      5.80604  eV     2   --> E    L_3       
     e(  5 -  5) =      8.67540  eV     1   --> A_1  L_1       
     e(  6 -  7) =      9.77724  eV     2   --> E    L_3       
     e(  8 -  8) =     12.60480  eV     1   --> A_1  L_1       
     e(  9 - 10) =     13.45766  eV     2   --> E    L_3       
     e( 11 - 11) =     15.61772  eV     1   --> A_1  L_1       
     e( 12 - 12) =     17.44525  eV     1   --> A_1  L_1       

 **************************************************************************

 **************************************************************************

                    xk=(  -0.15910,   0.15910,   0.15910  )

     Band symmetry, C_3v (3m)   point group:

     e(  1 -  1) =     -5.03195  eV     1   --> A_1  L_1       
     e(  2 -  2) =      2.89266  eV     1   --> A_1  L_1       
     e(  3 -  4) =      5.71197  eV     2   --> E    L_3       
     e(  5 -  5) =      8.57920  eV     1   --> A_1  L_1       
     e(  6 -  7) =      9.86237  eV     2   --> E    L_3       
     e(  8 -  8) =     13.04369  eV     1   --> A_1  L_1       
     e(  9 - 10) =     13.50066  eV     2   --> E    L_3       
     e( 11 - 11) =     15.55031  eV     1   --> A_1  L_1       
     e( 12 - 12) =     17.85805  eV     1   --> A_1  L_1       

 **************************************************************************

 **************************************************************************

                    xk=(  -0.17678,   0.17678,   0.17678  )

     Band symmetry, C_3v (3m)   point group:

     e(  1 -  1) =     -4.88141  eV     1   --> A_1  L_1       
     e(  2 -  2) =      2.43203  eV     1   --> A_1  L_1       
     e(  3 -  4) =      5.62322  eV     2   --> E    L_3       
     e(  5 -  5) =      8.48615  eV     1   --> A_1  L_1       
     e(  6 -  7) =      9.91659  eV     2   --> E    L_3       
     e(  8 -  8) =     13.46420  eV     1   --> A_1  L_1       
     e(  9 - 10) =     13.60912  eV     2   --> E    L_3       
     e( 11 - 11) =     15.45735  eV     1   --> A_1  L_1       
     e( 12 - 12) =     18.35915  eV     1   --> A_1  L_1       

 **************************************************************************

 **************************************************************************

                    xk=(  -0.19445,   0.19445,   0.19445  )

     Band symmetry, C_3v (3m)   point group:

     e(  1 -  1) =     -4.71778  eV     1   --> A_1  L_1       
     e(  2 -  2) =      1.98394  eV     1   --> A_1  L_1       
     e(  3 -  4) =      5.54117  eV     2   --> E    L_3       
     e(  5 -  5) =      8.39839  eV     1   --> A_1  L_1       
     e(  6 -  7) =      9.94033  eV     2   --> E    L_3       
     e(  8 -  9) =     13.78337  eV     2   --> E    L_3       
     e( 10 - 10) =     13.84598  eV     1   --> A_1  L_1       
     e( 11 - 11) =     15.38941  eV     1   --> A_1  L_1       
     e( 12 - 12) =     18.90855  eV     1   --> A_1  L_1       

 **************************************************************************

 **************************************************************************

                    xk=(  -0.21213,   0.21213,   0.21213  )

     Band symmetry, C_3v (3m)   point group:

     e(  1 -  1) =     -4.54242  eV     1   --> A_1  L_1       
     e(  2 -  2) =      1.55123  eV     1   --> A_1  L_1       
     e(  3 -  4) =      5.46659  eV     2   --> E    L_3       
     e(  5 -  5) =      8.31742  eV     1   --> A_1  L_1       
     e(  6 -  7) =      9.93821  eV     2   --> E    L_3       
     e(  8 -  9) =     14.01935  eV     2   --> E    L_3       
     e( 10 - 10) =     14.14649  eV     1   --> A_1  L_1       
     e( 11 - 11) =     15.40449  eV     1   --> A_1  L_1       
     e( 12 - 12) =     19.47452  eV     1   --> A_1  L_1       

 **************************************************************************

 **************************************************************************

                    xk=(  -0.22981,   0.22981,   0.22981  )

     Band symmetry, C_3v (3m)   point group:

     e(  1 -  1) =     -4.35733  eV     1   --> A_1  L_1       
     e(  2 -  2) =      1.13710  eV     1   --> A_1  L_1       
     e(  3 -  4) =      5.40004  eV     2   --> E    L_3       
     e(  5 -  5) =      8.24429  eV     1   --> A_1  L_1       
     e(  6 -  7) =      9.91701  eV     2   --> E    L_3       
     e(  8 -  9) =     14.30997  eV     2   --> E    L_3       
     e( 10 - 10) =     14.31182  eV     1   --> A_1  L_1       
     e( 11 - 11) =     15.56446  eV     1   --> A_1  L_1       
     e( 12 - 12) =     20.01691  eV     1   --> A_1  L_1       

 **************************************************************************

 **************************************************************************

                    xk=(  -0.24749,   0.24749,   0.24749  )

     Band symmetry, C_3v (3m)   point group:

     e(  1 -  1) =     -4.16537  eV     1   --> A_1  L_1       
     e(  2 -  2) =      0.74523  eV     1   --> A_1  L_1       
     e(  3 -  4) =      5.34192  eV     2   --> E    L_3       
     e(  5 -  5) =      8.17983  eV     1   --> A_1  L_1       
     e(  6 -  7) =      9.88417  eV     2   --> E    L_3       
     e(  8 -  8) =     14.34929  eV     1   --> A_1  L_1       
     e(  9 - 10) =     14.64773  eV     2   --> E    L_3       
     e( 11 - 11) =     15.86575  eV     1   --> A_1  L_1       
     e( 12 - 12) =     20.46337  eV     1   --> A_1  L_1       

 **************************************************************************

 **************************************************************************

                    xk=(  -0.26517,   0.26517,   0.26517  )

     Band symmetry, C_3v (3m)   point group:

     e(  1 -  1) =     -3.97082  eV     1   --> A_1  L_1       
     e(  2 -  2) =      0.38056  eV     1   --> A_1  L_1       
     e(  3 -  4) =      5.29251  eV     2   --> E    L_3       
     e(  5 -  5) =      8.12459  eV     1   --> A_1  L_1       
     e(  6 -  7) =      9.84633  eV     2   --> E    L_3       
     e(  8 -  8) =     14.32121  eV     1   --> A_1  L_1       
     e(  9 - 10) =     15.02539  eV     2   --> E    L_3       
     e( 11 - 11) =     16.24683  eV     1   --> A_1  L_1       
     e( 12 - 12) =     20.27624  eV     1   -->   ?

 **************************************************************************

 **************************************************************************

                    xk=(  -0.28284,   0.28284,   0.28284  )

     Band symmetry, C_3v (3m)   point group:

     e(  1 -  1) =     -3.78017  eV     1   --> A_1  L_1       
     e(  2 -  2) =      0.05011  eV     1   --> A_1  L_1       
     e(  3 -  4) =      5.25194  eV     2   --> E    L_3       
     e(  5 -  5) =      8.07903  eV     1   --> A_1  L_1       
     e(  6 -  7) =      9.80883  eV     2   --> E    L_3       
     e(  8 -  8) =     14.27252  eV     1   --> A_1  L_1       
     e(  9 - 10) =     15.43589  eV     2   --> E    L_3       
     e( 11 - 11) =     16.66028  eV     1   --> A_1  L_1       
     e( 12 - 12) =     19.71378  eV     1   -->   ?

 **************************************************************************

 **************************************************************************

                    xk=(  -0.30052,   0.30052,   0.30052  )

     Band symmetry, C_3v (3m)   point group:

     e(  1 -  1) =     -3.60328  eV     1   --> A_1  L_1       
     e(  2 -  2) =     -0.23588  eV     1   --> A_1  L_1       
     e(  3 -  4) =      5.22033  eV     2   --> E    L_3       
     e(  5 -  5) =      8.04330  eV     1   --> A_1  L_1       
     e(  6 -  7) =      9.77586  eV     2   --> E    L_3       
     e(  8 -  8) =     14.22408  eV     1   --> A_1  L_1       
     e(  9 - 10) =     15.87222  eV     2   --> E    L_3       
     e( 11 - 11) =     17.07699  eV     1   --> A_1  L_1       
     e( 12 - 12) =     19.15224  eV     1   -->   ?

 **************************************************************************

 **************************************************************************

                    xk=(  -0.31820,   0.31820,   0.31820  )

     Band symmetry, C_3v (3m)   point group:

     e(  1 -  1) =     -3.45460  eV     1   --> A_1  L_1       
     e(  2 -  2) =     -0.46268  eV     1   --> A_1  L_1       
     e(  3 -  4) =      5.19771  eV     2   --> E    L_3       
     e(  5 -  5) =      8.01767  eV     1   --> A_1  L_1       
     e(  6 -  7) =      9.75035  eV     2   --> E    L_3       
     e(  8 -  8) =     14.18536  eV     1   --> A_1  L_1       
     e(  9 - 10) =     16.32330  eV     2   --> E    L_3       
     e( 11 - 11) =     17.46766  eV     1   --> A_1  L_1       
     e( 12 - 12) =     18.60912  eV     1   -->   ?

 **************************************************************************

 **************************************************************************

                    xk=(  -0.33588,   0.33588,   0.33588  )

     Band symmetry, C_3v (3m)   point group:

     e(  1 -  1) =     -3.35285  eV     1   --> A_1  L_1       
     e(  2 -  2) =     -0.61138  eV     1   --> A_1  L_1       
     e(  3 -  4) =      5.18407  eV     2   --> E    L_3       
     e(  5 -  5) =      8.00218  eV     1   --> A_1  L_1       
     e(  6 -  7) =      9.73411  eV     2   --> E    L_3       
     e(  8 -  8) =     14.16075  eV     1   --> A_1  L_1       
     e(  9 - 10) =     16.75746  eV     2   --> E    L_3       
     e( 11 - 11) =     17.77860  eV     1   --> A_1  L_1       
     e( 12 - 12) =     18.11888  eV     1   -->   ?

 **************************************************************************

 **************************************************************************

                    xk=(  -0.35355,   0.35355,   0.35355  )

     zone border point and non-symmorphic group 
     symmetry decomposition not available

 **************************************************************************

 **************************************************************************

                    xk=(  -0.37123,   0.35355,   0.33588  )

     zone border point and non-symmorphic group 
     symmetry decomposition not available

 **************************************************************************

 **************************************************************************

                    xk=(  -0.38891,   0.35355,   0.31820  )

     zone border point and non-symmorphic group 
     symmetry decomposition not available

 **************************************************************************

 **************************************************************************

                    xk=(  -0.40659,   0.35355,   0.30052  )

     zone border point and non-symmorphic group 
     symmetry decomposition not available

 **************************************************************************

 **************************************************************************

                    xk=(  -0.42426,   0.35355,   0.28284  )

     zone border point and non-symmorphic group 
     symmetry decomposition not available

 **************************************************************************

 **************************************************************************

                    xk=(  -0.44194,   0.35355,   0.26517  )

     zone border point and non-symmorphic group 
     symmetry decomposition not available

 **************************************************************************

 **************************************************************************

                    xk=(  -0.45962,   0.35355,   0.24749  )

     zone border point and non-symmorphic group 
     symmetry decomposition not available

 **************************************************************************

 **************************************************************************

                    xk=(  -0.47730,   0.35355,   0.22981  )

     zone border point and non-symmorphic group 
     symmetry decomposition not available

 **************************************************************************

 **************************************************************************

                    xk=(  -0.49497,   0.35355,   0.21213  )

     zone border point and non-symmorphic group 
     symmetry decomposition not available

 **************************************************************************

 **************************************************************************

                    xk=(  -0.51265,   0.35355,   0.19445  )

     zone border point and non-symmorphic group 
     symmetry decomposition not available

 **************************************************************************

 **************************************************************************

                    xk=(  -0.53033,   0.35355,   0.17678  )

     zone border point and non-symmorphic group 
     symmetry decomposition not available

 **************************************************************************

 **************************************************************************

                    xk=(  -0.54801,   0.35355,   0.15910  )

     zone border point and non-symmorphic group 
     symmetry decomposition not available

 **************************************************************************

 **************************************************************************

                    xk=(  -0.56569,   0.35355,   0.14142  )

     zone border point and non-symmorphic group 
     symmetry decomposition not available

 **************************************************************************

 **************************************************************************

                    xk=(  -0.58336,   0.35355,   0.12374  )

     zone border point and non-symmorphic group 
     symmetry decomposition not available

 **************************************************************************

 **************************************************************************

                    xk=(  -0.60104,   0.35355,   0.10607  )

     zone border point and non-symmorphic group 
     symmetry decomposition not available

 **************************************************************************

 **************************************************************************

                    xk=(  -0.61872,   0.35355,   0.08839  )

     zone border point and non-symmorphic group 
     symmetry decomposition not available

 **************************************************************************

 **************************************************************************

                    xk=(  -0.63640,   0.35355,   0.07071  )

     zone border point and non-symmorphic group 
     symmetry decomposition not available

 **************************************************************************

 **************************************************************************

                    xk=(  -0.65407,   0.35355,   0.05303  )

     zone border point and non-symmorphic group 
     symmetry decomposition not available

 **************************************************************************

 **************************************************************************

                    xk=(  -0.67175,   0.35355,   0.03536  )

     zone border point and non-symmorphic group 
     symmetry decomposition not available

 **************************************************************************

 **************************************************************************

                    xk=(  -0.68943,   0.35355,   0.01768  )

     zone border point and non-symmorphic group 
     symmetry decomposition not available

 **************************************************************************

 **************************************************************************

                    xk=(  -0.70711,   0.35355,   0.00000  )

     zone border point and non-symmorphic group 
     symmetry decomposition not available

 **************************************************************************

 **************************************************************************

                    xk=(  -0.70711,   0.33588,   0.00000  )

     zone border point and non-symmorphic group 
     symmetry decomposition not available

 **************************************************************************

 **************************************************************************

                    xk=(  -0.70711,   0.31820,   0.00000  )

     zone border point and non-symmorphic group 
     symmetry decomposition not available

 **************************************************************************

 **************************************************************************

                    xk=(  -0.70711,   0.30052,  -0.00000  )

     zone border point and non-symmorphic group 
     symmetry decomposition not available

 **************************************************************************

 **************************************************************************

                    xk=(  -0.70711,   0.28284,   0.00000  )

     zone border point and non-symmorphic group 
     symmetry decomposition not available

 **************************************************************************

 **************************************************************************

                    xk=(  -0.70711,   0.26517,   0.00000  )

     zone border point and non-symmorphic group 
     symmetry decomposition not available

 **************************************************************************

 **************************************************************************

                    xk=(  -0.70711,   0.24749,  -0.00000  )

     zone border point and non-symmorphic group 
     symmetry decomposition not available

 **************************************************************************

 **************************************************************************

                    xk=(  -0.70711,   0.22981,   0.00000  )

     zone border point and non-symmorphic group 
     symmetry decomposition not available

 **************************************************************************

 **************************************************************************

                    xk=(  -0.70711,   0.21213,  -0.00000  )

     zone border point and non-symmorphic group 
     symmetry decomposition not available

 **************************************************************************

 **************************************************************************

                    xk=(  -0.70711,   0.19445,   0.00000  )

     zone border point and non-symmorphic group 
     symmetry decomposition not available

 **************************************************************************

 **************************************************************************

                    xk=(  -0.70711,   0.17678,  -0.00000  )

     zone border point and non-symmorphic group 
     symmetry decomposition not available

 **************************************************************************

 **************************************************************************

                    xk=(  -0.70711,   0.15910,  -0.00000  )

     zone border point and non-symmorphic group 
     symmetry decomposition not available

 **************************************************************************

 **************************************************************************

                    xk=(  -0.70711,   0.14142,  -0.00000  )

     zone border point and non-symmorphic group 
     symmetry decomposition not available

 **************************************************************************

 **************************************************************************

                    xk=(  -0.70711,   0.12374,  -0.00000  )

     zone border point and non-symmorphic group 
     symmetry decomposition not available

 **************************************************************************

 **************************************************************************

                    xk=(  -0.70711,   0.10607,   0.00000  )

     zone border point and non-symmorphic group 
     symmetry decomposition not available

 **************************************************************************

 **************************************************************************

                    xk=(  -0.70711,   0.08839,   0.00000  )

     zone border point and non-symmorphic group 
     symmetry decomposition not available

 **************************************************************************

 **************************************************************************

                    xk=(  -0.70711,   0.07071,  -0.00000  )

     zone border point and non-symmorphic group 
     symmetry decomposition not available

 **************************************************************************

 **************************************************************************

                    xk=(  -0.70711,   0.05303,   0.00000  )

     zone border point and non-symmorphic group 
     symmetry decomposition not available

 **************************************************************************

 **************************************************************************

                    xk=(  -0.70711,   0.03536,   0.00000  )

     zone border point and non-symmorphic group 
     symmetry decomposition not available

 **************************************************************************

 **************************************************************************

                    xk=(  -0.70711,   0.01768,   0.00000  )

     zone border point and non-symmorphic group 
     symmetry decomposition not available

 **************************************************************************

 **************************************************************************

                    xk=(  -0.70711,   0.00000,   0.00000  )

     zone border point and non-symmorphic group 
     symmetry decomposition not available

 **************************************************************************

     BANDS        :      0.73s CPU      0.77s WALL


   This run was terminated on:  12:22:46   7May2026            

=------------------------------------------------------------------------------=
   JOB DONE.
=------------------------------------------------------------------------------=
