
     Program BANDS v.7.5 starts on 27Apr2026 at 14:21:31 

     This program is part of the open-source Quantum ESPRESSO suite
     for quantum simulation of materials; please cite
         "P. Giannozzi et al., J. Phys.:Condens. Matter 21 395502 (2009);
         "P. Giannozzi et al., J. Phys.:Condens. Matter 29 465901 (2017);
         "P. Giannozzi et al., J. Chem. Phys. 152 154105 (2020);
          URL http://www.quantum-espresso.org", 
     in publications or presentations arising from this work. More details at
     http://www.quantum-espresso.org/quote

     Parallel version (MPI), running on     6 processors

     MPI processes distributed on     1 nodes
     R & G space division:  proc/nbgrp/npool/nimage =       6
     0 MiB available memory on the printing compute node when the environment starts


     Reading xml data from directory:

     ./out/silicon.save/

     IMPORTANT: XC functional enforced from input :
     Exchange-correlation= PBE
                           (   1   4   3   4   0   0   0)
     Any further DFT definition will be discarded
     Please, verify this is what you really want


     Parallelization info
     --------------------
     sticks:   dense  smooth     PW     G-vecs:    dense   smooth      PW
     Min         142      72     23                 2770      992     177
     Max         144      73     24                 2773      995     179
     Sum         859     433    139                16625     5961    1067

     Using Slab Decomposition

     Reading collected, re-writing distributed wavefunctions
     high-symmetry point:  0.0000 0.0000 0.0000   x coordinate   0.0000
     high-symmetry point: -0.7071 0.0000 0.0000   x coordinate   0.7071
     high-symmetry point: -0.7071 0.1768 0.1768   x coordinate   0.9571
     high-symmetry point: -0.5303 0.5303 0.0000   x coordinate   0.9571
     high-symmetry point:  0.0000 0.0000 0.0000   x coordinate   1.7071
     high-symmetry point: -0.3536 0.3536 0.3536   x coordinate   2.3195
     high-symmetry point: -0.7071 0.3536 0.0000   x coordinate   2.8195
     high-symmetry point: -0.7071 0.0000 0.0000   x coordinate   3.1730

     Plottable bands (eV) written to file silicon.band.gnu
     Bands written to file silicon.band

 **************************************************************************

                    xk=(   0.00000,   0.00000,   0.00000  )

     point group O_h (m-3m) 
     there are 10 classes
     the character table:

       E     8C3   3C2   6C4   6C2'  i     8S6   3s_h  6S4   6s_d 
A_1g   1.00  1.00  1.00  1.00  1.00  1.00  1.00  1.00  1.00  1.00
A_2g   1.00  1.00  1.00 -1.00 -1.00  1.00  1.00  1.00 -1.00 -1.00
E_g    2.00 -1.00  2.00  0.00  0.00  2.00 -1.00  2.00  0.00  0.00
T_1g   3.00  0.00 -1.00  1.00 -1.00  3.00  0.00 -1.00  1.00 -1.00
T_2g   3.00  0.00 -1.00 -1.00  1.00  3.00  0.00 -1.00 -1.00  1.00
A_1u   1.00  1.00  1.00  1.00  1.00 -1.00 -1.00 -1.00 -1.00 -1.00
A_2u   1.00  1.00  1.00 -1.00 -1.00 -1.00 -1.00 -1.00  1.00  1.00
E_u    2.00 -1.00  2.00  0.00  0.00 -2.00  1.00 -2.00  0.00  0.00
T_1u   3.00  0.00 -1.00  1.00 -1.00 -3.00  0.00  1.00 -1.00  1.00
T_2u   3.00  0.00 -1.00 -1.00  1.00 -3.00  0.00  1.00  1.00 -1.00

     the symmetry operations in each class and the name of the first element:

     E        1
                                                                 
     8C3     17   19   20   18   24   21   22   23
                                                                 
     3C2      2    4    3
                                                                 
     6C4      7    8   15   16   12   11
                                                                 
     6C2'     5    6   14   13   10    9
                                                                 
     i       25
                                                                 
     8S6     41   43   44   42   48   45   46   47
                                                                 
     3s_h    26   28   27
                                                                 
     6S4     31   32   39   40   36   35
                                                                 
     6s_d    29   30   38   37   34   33
                                                                 

     Band symmetry, O_h (m-3m)  point group:

     e(  1 -  1) =     -5.69405  eV     1   --> A_1g G_1   G_1+
     e(  2 -  4) =      6.39586  eV     3   --> T_2g G_25' G_5+
     e(  5 -  7) =      8.96549  eV     3   --> T_1u G_15  G_4-
     e(  8 -  8) =      9.96724  eV     1   --> A_2u G_2'  G_2-
     e(  9 - 10) =     14.13693  eV     2   --> E_u  G_12' G_3-
     e( 11 - 11) =     14.43091  eV     1   --> A_1g G_1   G_1+
     e( 12 - 12) =     17.71784  eV     1   -->   ?

 **************************************************************************

 **************************************************************************

                    xk=(  -0.14142,  -0.00000,   0.00000  )

     point group C_4v (4mm) 
     there are  5 classes
     the character table:

       E     2C4   C2    2s_v  2s_d 
A_1    1.00  1.00  1.00  1.00  1.00
A_2    1.00  1.00  1.00 -1.00 -1.00
B_1    1.00 -1.00  1.00  1.00 -1.00
B_2    1.00 -1.00  1.00 -1.00  1.00
E      2.00  0.00 -2.00  0.00  0.00

     the symmetry operations in each class and the name of the first element:

     E        1
                                                                 
     2C4      3    4
                                                                 
     C2       2
                                                                 
     2s_v     5    6
                                                                 
     2s_d     7    8
                                                                 

     Band symmetry, C_4v (4mm)  point group:

     e(  1 -  1) =     -5.51648  eV     1   --> A_1  G_1 D_1   
     e(  2 -  2) =      5.47213  eV     1   --> B_2  G_4 D_2'  
     e(  3 -  4) =      5.80587  eV     2   --> E    G_5 D_5   
     e(  5 -  5) =      8.58085  eV     1   --> A_1  G_1 D_1   
     e(  6 -  7) =      9.77301  eV     2   --> E    G_5 D_5   
     e(  8 -  8) =     10.76806  eV     1   --> B_2  G_4 D_2'  
     e(  9 -  9) =     13.15231  eV     1   --> B_2  G_4 D_2'  
     e( 10 - 10) =     14.33333  eV     1   --> A_2  G_2 D_1'  
     e( 11 - 11) =     15.16306  eV     1   --> A_1  G_1 D_1   
     e( 12 - 12) =     18.02425  eV     1   -->   ?

 **************************************************************************

 **************************************************************************

                    xk=(  -0.28284,  -0.00000,   0.00000  )

     Band symmetry, C_4v (4mm)  point group:

     e(  1 -  1) =     -4.98769  eV     1   --> A_1  G_1 D_1   
     e(  2 -  2) =      3.78227  eV     1   --> B_2  G_4 D_2'  
     e(  3 -  4) =      4.87792  eV     2   --> E    G_5 D_5   
     e(  5 -  5) =      7.84633  eV     1   --> A_1  G_1 D_1   
     e(  6 -  6) =     10.31380  eV     1   --> B_2  G_4 D_2'  
     e(  7 -  8) =     11.33877  eV     2   --> E    G_5 D_5   
     e(  9 -  9) =     13.63866  eV     1   --> B_2  G_4 D_2'  
     e( 10 - 10) =     14.92208  eV     1   --> A_2  G_2 D_1'  
     e( 11 - 11) =     16.90723  eV     1   --> A_1  G_1 D_1   
     e( 12 - 12) =     18.91146  eV     1   -->   ?

 **************************************************************************

 **************************************************************************

                    xk=(  -0.42426,  -0.00000,   0.00000  )

     Band symmetry, C_4v (4mm)  point group:

     e(  1 -  1) =     -4.12034  eV     1   --> A_1  G_1 D_1   
     e(  2 -  2) =      1.97033  eV     1   --> B_2  G_4 D_2'  
     e(  3 -  4) =      4.12483  eV     2   --> E    G_5 D_5   
     e(  5 -  5) =      7.23489  eV     1   --> A_1  G_1 D_1   
     e(  6 -  6) =      8.79218  eV     1   --> B_2  G_4 D_2'  
     e(  7 -  8) =     13.12204  eV     2   --> E    G_5 D_5   
     e(  9 -  9) =     15.72157  eV     1   --> B_2  G_4 D_2'  
     e( 10 - 10) =     15.90008  eV     1   --> A_2  G_2 D_1'  
     e( 11 - 11) =     19.00836  eV     1   --> A_1  G_1 D_1   
     e( 12 - 12) =     19.97209  eV     1   -->   ?

 **************************************************************************

 **************************************************************************

                    xk=(  -0.56569,  -0.00000,   0.00000  )

     Band symmetry, C_4v (4mm)  point group:

     e(  1 -  1) =     -2.93862  eV     1   --> A_1  G_1 D_1   
     e(  2 -  2) =      0.18203  eV     1   --> B_2  G_4 D_2'  
     e(  3 -  4) =      3.65281  eV     2   --> E    G_5 D_5   
     e(  5 -  5) =      6.94505  eV     1   --> A_1  G_1 D_1   
     e(  6 -  6) =      7.67404  eV     1   --> B_2  G_4 D_2'  
     e(  7 -  8) =     15.00673  eV     2   --> E    G_5 D_5   
     e(  9 -  9) =     17.26291  eV     1   --> A_2  G_2 D_1'  
     e( 10 - 10) =     17.85637  eV     1   --> B_2  G_4 D_2'  
     e( 11 - 12) =     19.09899  eV     2   --> E    G_5 D_5   

 **************************************************************************

 **************************************************************************

                    xk=(  -0.70711,   0.00000,   0.00000  )

     zone border point and non-symmorphic group 
     symmetry decomposition not available

 **************************************************************************

 **************************************************************************

                    xk=(  -0.70711,   0.03536,   0.03536  )

     zone border point and non-symmorphic group 
     symmetry decomposition not available

 **************************************************************************

 **************************************************************************

                    xk=(  -0.70711,   0.07071,   0.07071  )

     zone border point and non-symmorphic group 
     symmetry decomposition not available

 **************************************************************************

 **************************************************************************

                    xk=(  -0.70711,   0.10607,   0.10607  )

     zone border point and non-symmorphic group 
     symmetry decomposition not available

 **************************************************************************

 **************************************************************************

                    xk=(  -0.70711,   0.14142,   0.14142  )

     zone border point and non-symmorphic group 
     symmetry decomposition not available

 **************************************************************************

 **************************************************************************

                    xk=(  -0.70711,   0.17678,   0.17678  )

     zone border point and non-symmorphic group 
     symmetry decomposition not available

 **************************************************************************

 **************************************************************************

                    xk=(  -0.53033,   0.53033,   0.00000  )

     Band symmetry, C_2v (mm2)  point group:

     e(  1 -  1) =     -1.89578  eV     1   --> A_1  D_1  S_1  
     e(  2 -  2) =     -0.88661  eV     1   --> B_1  D_3  S_3  
     e(  3 -  3) =      2.00524  eV     1   --> A_1  D_1  S_1  
     e(  4 -  4) =      3.92761  eV     1   --> A_2  D_2  S_2  
     e(  5 -  5) =      7.57470  eV     1   --> B_1  D_3  S_3  
     e(  6 -  6) =     10.54118  eV     1   --> A_1  D_1  S_1  
     e(  7 -  7) =     13.94403  eV     1   --> B_2  D_4  S_4  
     e(  8 -  8) =     14.49846  eV     1   --> A_1  D_1  S_1  
     e(  9 -  9) =     14.76642  eV     1   --> B_1  D_3  S_3  
     e( 10 - 10) =     14.94072  eV     1   --> A_2  D_2  S_2  
     e( 11 - 11) =     21.34560  eV     1   --> B_1  D_3  S_3  
     e( 12 - 12) =     21.39462  eV     1   --> A_2  D_2  S_2  

 **************************************************************************

 **************************************************************************

                    xk=(  -0.42426,   0.42426,  -0.00000  )

     Band symmetry, C_2v (mm2)  point group:

     e(  1 -  1) =     -2.85105  eV     1   --> A_1  D_1  S_1  
     e(  2 -  2) =      0.03645  eV     1   --> B_1  D_3  S_3  
     e(  3 -  3) =      2.04618  eV     1   --> A_1  D_1  S_1  
     e(  4 -  4) =      4.54831  eV     1   --> A_2  D_2  S_2  
     e(  5 -  5) =      8.29636  eV     1   --> B_1  D_3  S_3  
     e(  6 -  6) =     12.19804  eV     1   --> B_2  D_4  S_4  
     e(  7 -  7) =     12.48455  eV     1   --> A_1  D_1  S_1  
     e(  8 -  8) =     13.36208  eV     1   --> B_1  D_3  S_3  
     e(  9 -  9) =     13.50420  eV     1   --> A_2  D_2  S_2  
     e( 10 - 10) =     14.05429  eV     1   --> A_1  D_1  S_1  
     e( 11 - 11) =     20.14234  eV     1   --> B_1  D_3  S_3  
     e( 12 - 12) =     20.74967  eV     1   --> A_1  D_1  S_1  

 **************************************************************************

 **************************************************************************

                    xk=(  -0.31820,   0.31820,  -0.00000  )

     Band symmetry, C_2v (mm2)  point group:

     e(  1 -  1) =     -3.98164  eV     1   --> A_1  D_1  S_1  
     e(  2 -  2) =      1.36593  eV     1   --> B_1  D_3  S_3  
     e(  3 -  3) =      2.92941  eV     1   --> A_1  D_1  S_1  
     e(  4 -  4) =      5.29734  eV     1   --> A_2  D_2  S_2  
     e(  5 -  5) =      9.11549  eV     1   --> B_1  D_3  S_3  
     e(  6 -  6) =     10.79770  eV     1   --> B_2  D_4  S_4  
     e(  7 -  7) =     11.14303  eV     1   --> A_1  D_1  S_1  
     e(  8 -  8) =     12.38232  eV     1   --> B_1  D_3  S_3  
     e(  9 -  9) =     12.63236  eV     1   --> A_2  D_2  S_2  
     e( 10 - 10) =     16.92593  eV     1   --> A_1  D_1  S_1  
     e( 11 - 11) =     18.45980  eV     1   --> B_1  D_3  S_3  
     e( 12 - 12) =     18.78654  eV     1   --> B_1  D_3  S_3  

 **************************************************************************

 **************************************************************************

                    xk=(  -0.21213,   0.21213,   0.00000  )

     Band symmetry, C_2v (mm2)  point group:

     e(  1 -  1) =     -4.90859  eV     1   --> A_1  D_1  S_1  
     e(  2 -  2) =      3.06694  eV     1   --> B_1  D_3  S_3  
     e(  3 -  3) =      4.25053  eV     1   --> A_1  D_1  S_1  
     e(  4 -  4) =      5.94641  eV     1   --> A_2  D_2  S_2  
     e(  5 -  5) =      9.51712  eV     1   --> B_1  D_3  S_3  
     e(  6 -  6) =      9.78329  eV     1   --> B_2  D_4  S_4  
     e(  7 -  7) =     10.06775  eV     1   --> A_1  D_1  S_1  
     e(  8 -  8) =     12.12920  eV     1   --> B_1  D_3  S_3  
     e(  9 -  9) =     12.55858  eV     1   --> A_2  D_2  S_2  
     e( 10 - 10) =     15.27414  eV     1   --> B_1  D_3  S_3  
     e( 11 - 11) =     16.72987  eV     1   --> A_1  D_1  S_1  
     e( 12 - 12) =     17.81863  eV     1   --> B_1  D_3  S_3  

 **************************************************************************

 **************************************************************************

                    xk=(  -0.10607,   0.10607,   0.00000  )

     Band symmetry, C_2v (mm2)  point group:

     e(  1 -  1) =     -5.49479  eV     1   --> A_1  D_1  S_1  
     e(  2 -  2) =      5.02579  eV     1   --> B_1  D_3  S_3  
     e(  3 -  3) =      5.65562  eV     1   --> A_1  D_1  S_1  
     e(  4 -  4) =      6.30170  eV     1   --> A_2  D_2  S_2  
     e(  5 -  5) =      9.17038  eV     1   --> B_2  D_4  S_4  
     e(  6 -  6) =      9.31488  eV     1   --> A_1  D_1  S_1  
     e(  7 -  7) =      9.35283  eV     1   --> B_1  D_3  S_3  
     e(  8 -  8) =     11.16852  eV     1   --> B_1  D_3  S_3  
     e(  9 -  9) =     13.34408  eV     1   --> A_2  D_2  S_2  
     e( 10 - 10) =     13.98592  eV     1   --> B_1  D_3  S_3  
     e( 11 - 11) =     15.22929  eV     1   --> A_1  D_1  S_1  
     e( 12 - 12) =     17.55175  eV     1   --> B_1  D_3  S_3  

 **************************************************************************

 **************************************************************************

                    xk=(   0.00000,   0.00000,   0.00000  )

     point group O_h (m-3m) 
     there are 10 classes
     the character table:

       E     8C3   3C2   6C4   6C2'  i     8S6   3s_h  6S4   6s_d 
A_1g   1.00  1.00  1.00  1.00  1.00  1.00  1.00  1.00  1.00  1.00
A_2g   1.00  1.00  1.00 -1.00 -1.00  1.00  1.00  1.00 -1.00 -1.00
E_g    2.00 -1.00  2.00  0.00  0.00  2.00 -1.00  2.00  0.00  0.00
T_1g   3.00  0.00 -1.00  1.00 -1.00  3.00  0.00 -1.00  1.00 -1.00
T_2g   3.00  0.00 -1.00 -1.00  1.00  3.00  0.00 -1.00 -1.00  1.00
A_1u   1.00  1.00  1.00  1.00  1.00 -1.00 -1.00 -1.00 -1.00 -1.00
A_2u   1.00  1.00  1.00 -1.00 -1.00 -1.00 -1.00 -1.00  1.00  1.00
E_u    2.00 -1.00  2.00  0.00  0.00 -2.00  1.00 -2.00  0.00  0.00
T_1u   3.00  0.00 -1.00  1.00 -1.00 -3.00  0.00  1.00 -1.00  1.00
T_2u   3.00  0.00 -1.00 -1.00  1.00 -3.00  0.00  1.00  1.00 -1.00

     the symmetry operations in each class and the name of the first element:

     E        1
                                                                 
     8C3     17   19   20   18   24   21   22   23
                                                                 
     3C2      2    4    3
                                                                 
     6C4      7    8   15   16   12   11
                                                                 
     6C2'     5    6   14   13   10    9
                                                                 
     i       25
                                                                 
     8S6     41   43   44   42   48   45   46   47
                                                                 
     3s_h    26   28   27
                                                                 
     6S4     31   32   39   40   36   35
                                                                 
     6s_d    29   30   38   37   34   33
                                                                 

     Band symmetry, O_h (m-3m)  point group:

     e(  1 -  1) =     -5.69405  eV     1   --> A_1g G_1   G_1+
     e(  2 -  4) =      6.39586  eV     3   --> T_2g G_25' G_5+
     e(  5 -  7) =      8.96549  eV     3   --> T_1u G_15  G_4-
     e(  8 -  8) =      9.96724  eV     1   --> A_2u G_2'  G_2-
     e(  9 - 10) =     14.13693  eV     2   --> E_u  G_12' G_3-
     e( 11 - 11) =     14.43091  eV     1   --> A_1g G_1   G_1+
     e( 12 - 12) =     17.71784  eV     1   -->   ?

 **************************************************************************

 **************************************************************************

                    xk=(  -0.07071,   0.07071,   0.07071  )

     point group C_3v (3m)  
     there are  3 classes
     the character table:

       E     2C3   3s_v 
A_1    1.00  1.00  1.00
A_2    1.00  1.00 -1.00
E      2.00 -1.00  0.00

     the symmetry operations in each class and the name of the first element:

     E        1
                                                                 
     2C3      2    3
                                                                 
     3s_v     4    5    6
                                                                 

     Band symmetry, C_3v (3m)   point group:

     e(  1 -  1) =     -5.56109  eV     1   --> A_1  L_1       
     e(  2 -  2) =      5.24660  eV     1   --> A_1  L_1       
     e(  3 -  4) =      6.19324  eV     2   --> E    L_3       
     e(  5 -  5) =      9.01143  eV     1   --> A_1  L_1       
     e(  6 -  7) =      9.26356  eV     2   --> E    L_3       
     e(  8 -  8) =     10.85466  eV     1   --> A_1  L_1       
     e(  9 - 10) =     13.77483  eV     2   --> E    L_3       
     e( 11 - 11) =     14.97535  eV     1   --> A_1  L_1       
     e( 12 - 12) =     17.28868  eV     1   --> A_1  L_1       

 **************************************************************************

 **************************************************************************

                    xk=(  -0.14142,   0.14142,   0.14142  )

     Band symmetry, C_3v (3m)   point group:

     e(  1 -  1) =     -5.16840  eV     1   --> A_1  L_1       
     e(  2 -  2) =      3.36282  eV     1   --> A_1  L_1       
     e(  3 -  4) =      5.80604  eV     2   --> E    L_3       
     e(  5 -  5) =      8.67540  eV     1   --> A_1  L_1       
     e(  6 -  7) =      9.77724  eV     2   --> E    L_3       
     e(  8 -  8) =     12.60480  eV     1   --> A_1  L_1       
     e(  9 - 10) =     13.45766  eV     2   --> E    L_3       
     e( 11 - 11) =     15.61772  eV     1   --> A_1  L_1       
     e( 12 - 12) =     17.44525  eV     1   --> A_1  L_1       

 **************************************************************************

 **************************************************************************

                    xk=(  -0.21213,   0.21213,   0.21213  )

     Band symmetry, C_3v (3m)   point group:

     e(  1 -  1) =     -4.54242  eV     1   --> A_1  L_1       
     e(  2 -  2) =      1.55123  eV     1   --> A_1  L_1       
     e(  3 -  4) =      5.46659  eV     2   --> E    L_3       
     e(  5 -  5) =      8.31742  eV     1   --> A_1  L_1       
     e(  6 -  7) =      9.93821  eV     2   --> E    L_3       
     e(  8 -  9) =     14.01935  eV     2   --> E    L_3       
     e( 10 - 10) =     14.14649  eV     1   --> A_1  L_1       
     e( 11 - 11) =     15.40449  eV     1   --> A_1  L_1       
     e( 12 - 12) =     19.47452  eV     1   --> A_1  L_1       

 **************************************************************************

 **************************************************************************

                    xk=(  -0.28284,   0.28284,   0.28284  )

     Band symmetry, C_3v (3m)   point group:

     e(  1 -  1) =     -3.78017  eV     1   --> A_1  L_1       
     e(  2 -  2) =      0.05011  eV     1   --> A_1  L_1       
     e(  3 -  4) =      5.25194  eV     2   --> E    L_3       
     e(  5 -  5) =      8.07903  eV     1   --> A_1  L_1       
     e(  6 -  7) =      9.80883  eV     2   --> E    L_3       
     e(  8 -  8) =     14.27252  eV     1   --> A_1  L_1       
     e(  9 - 10) =     15.43589  eV     2   --> E    L_3       
     e( 11 - 11) =     16.66028  eV     1   --> A_1  L_1       
     e( 12 - 12) =     19.71378  eV     1   -->   ?

 **************************************************************************

 **************************************************************************

                    xk=(  -0.35355,   0.35355,   0.35355  )

     zone border point and non-symmorphic group 
     symmetry decomposition not available

 **************************************************************************

 **************************************************************************

                    xk=(  -0.42426,   0.35355,   0.28284  )

     zone border point and non-symmorphic group 
     symmetry decomposition not available

 **************************************************************************

 **************************************************************************

                    xk=(  -0.49497,   0.35355,   0.21213  )

     zone border point and non-symmorphic group 
     symmetry decomposition not available

 **************************************************************************

 **************************************************************************

                    xk=(  -0.56569,   0.35355,   0.14142  )

     zone border point and non-symmorphic group 
     symmetry decomposition not available

 **************************************************************************

 **************************************************************************

                    xk=(  -0.63640,   0.35355,   0.07071  )

     zone border point and non-symmorphic group 
     symmetry decomposition not available

 **************************************************************************

 **************************************************************************

                    xk=(  -0.70711,   0.35355,   0.00000  )

     zone border point and non-symmorphic group 
     symmetry decomposition not available

 **************************************************************************

 **************************************************************************

                    xk=(  -0.70711,   0.28284,   0.00000  )

     zone border point and non-symmorphic group 
     symmetry decomposition not available

 **************************************************************************

 **************************************************************************

                    xk=(  -0.70711,   0.21213,  -0.00000  )

     zone border point and non-symmorphic group 
     symmetry decomposition not available

 **************************************************************************

 **************************************************************************

                    xk=(  -0.70711,   0.14142,  -0.00000  )

     zone border point and non-symmorphic group 
     symmetry decomposition not available

 **************************************************************************

 **************************************************************************

                    xk=(  -0.70711,   0.07071,  -0.00000  )

     zone border point and non-symmorphic group 
     symmetry decomposition not available

 **************************************************************************

 **************************************************************************

                    xk=(  -0.70711,   0.00000,   0.00000  )

     zone border point and non-symmorphic group 
     symmetry decomposition not available

 **************************************************************************

     BANDS        :      0.27s CPU      0.30s WALL


   This run was terminated on:  14:21:32  27Apr2026            

=------------------------------------------------------------------------------=
   JOB DONE.
=------------------------------------------------------------------------------=
