
     Program PWSCF v.7.5 starts on  7May2026 at 16:17:51 

     This program is part of the open-source Quantum ESPRESSO suite
     for quantum simulation of materials; please cite
         "P. Giannozzi et al., J. Phys.:Condens. Matter 21 395502 (2009);
         "P. Giannozzi et al., J. Phys.:Condens. Matter 29 465901 (2017);
         "P. Giannozzi et al., J. Chem. Phys. 152 154105 (2020);
          URL http://www.quantum-espresso.org", 
     in publications or presentations arising from this work. More details at
     http://www.quantum-espresso.org/quote

     Parallel version (MPI), running on     6 processors

     MPI processes distributed on     1 nodes
     0 MiB available memory on the printing compute node when the environment starts

     Waiting for input...
     Reading input from standard input

     Current dimensions of program PWSCF are:
     Max number of different atomic species (ntypx) = 10
     Max number of k-points (npk) =  40000
     Max angular momentum in pseudopotentials (lmaxx) =  4
     Message from routine setup:
     using ibrav=0 with symmetry is DISCOURAGED, use correct ibrav instead

     R & G space division:  proc/nbgrp/npool/nimage =       6
     Subspace diagonalization in iterative solution of the eigenvalue problem:
     a serial algorithm will be used


     Parallelization info
     --------------------
     sticks:   dense  smooth     PW     G-vecs:    dense   smooth      PW
     Min         142      72     24                 2770      993     189
     Max         144      73     26                 2773      995     190
     Sum         859     433    151                16625     5961    1139

     Using Slab Decomposition



     bravais-lattice index     =            0
     lattice parameter (alat)  =       7.2125  a.u.
     unit-cell volume          =     265.3020 (a.u.)^3
     number of atoms/cell      =            2
     number of atomic types    =            1
     number of electrons       =         8.00
     number of Kohn-Sham states=            8
     kinetic-energy cutoff     =      30.0000  Ry
     charge density cutoff     =     240.0000  Ry
     scf convergence threshold =      4.0E-10
     mixing beta               =       0.4000
     number of iterations used =            8  plain     mixing
     Exchange-correlation= PBE
                           (   1   4   3   4   0   0   0)

     celldm(1)=   7.212489  celldm(2)=   0.000000  celldm(3)=   0.000000
     celldm(4)=   0.000000  celldm(5)=   0.000000  celldm(6)=   0.000000

     crystal axes: (cart. coord. in units of alat)
               a(1) = (  -0.707107   0.000000   0.707107 )  
               a(2) = (   0.000000   0.707107   0.707107 )  
               a(3) = (  -0.707107   0.707107   0.000000 )  

     reciprocal axes: (cart. coord. in units 2 pi/alat)
               b(1) = ( -0.707107 -0.707107  0.707107 )  
               b(2) = (  0.707107  0.707107  0.707107 )  
               b(3) = ( -0.707107  0.707107 -0.707107 )  


     PseudoPot. # 1 for Si read from file:
     ./pseudo/Si.pbe-n-rrkjus_psl.1.0.0.UPF
     MD5 check sum: 0b0bb1205258b0d07b9f9672cf965d36
     Pseudo is Ultrasoft + core correction, Zval =  4.0
     Generated using "atomic" code by A. Dal Corso  v.5.1
     Using radial grid of 1141 points,  6 beta functions with: 
                l(1) =   0
                l(2) =   0
                l(3) =   1
                l(4) =   1
                l(5) =   2
                l(6) =   2
     Q(r) pseudized with 0 coefficients 


     atomic species   valence    mass     pseudopotential
     Si                4.00    28.08550     Si( 1.00)

     48 Sym. Ops., with inversion, found (24 have fractional translation)


                                    s                        frac. trans.

      isym =  1     identity                                     

 cryst.   s( 1) = (     1          0          0      )
                  (     0          1          0      )
                  (     0          0          1      )

 cart.    s( 1) = (  1.0000000  0.0000000 -0.0000000 )
                  (  0.0000000  1.0000000  0.0000000 )
                  ( -0.0000000 -0.0000000  1.0000000 )


      isym =  2     180 deg rotation - cart. axis [0,0,1]        

 cryst.   s( 2) = (     0          1         -1      )
                  (     1          0         -1      )
                  (     0          0         -1      )

 cart.    s( 2) = ( -1.0000000 -0.0000000 -0.0000000 )
                  ( -0.0000000 -1.0000000  0.0000000 )
                  (  0.0000000  0.0000000  1.0000000 )


      isym =  3     180 deg rotation - cart. axis [0,1,0]        

 cryst.   s( 3) = (    -1          0          0      )
                  (    -1          0          1      )
                  (    -1          1          0      )

 cart.    s( 3) = ( -1.0000000  0.0000000  0.0000000 )
                  ( -0.0000000  1.0000000 -0.0000000 )
                  (  0.0000000 -0.0000000 -1.0000000 )


      isym =  4     180 deg rotation - cart. axis [1,0,0]        

 cryst.   s( 4) = (     0         -1          1      )
                  (     0         -1          0      )
                  (     1         -1          0      )

 cart.    s( 4) = (  1.0000000 -0.0000000  0.0000000 )
                  (  0.0000000 -1.0000000 -0.0000000 )
                  ( -0.0000000  0.0000000 -1.0000000 )


      isym =  5     180 deg rotation - cart. axis [1,1,0]        

 cryst.   s( 5) = (     0         -1          0      )    f =(  0.2500000 )
                  (    -1          0          0      )       (  0.2500000 )
                  (     0          0         -1      )       (  0.2500000 )

 cart.    s( 5) = (  0.0000000  1.0000000  0.0000000 )    f =( -0.3535534 )
                  (  1.0000000  0.0000000 -0.0000000 )       (  0.3535534 )
                  ( -0.0000000 -0.0000000 -1.0000000 )       (  0.3535534 )


      isym =  6     180 deg rotation - cart. axis [1,-1,0]       

 cryst.   s( 6) = (    -1          0          1      )    f =(  0.2500000 )
                  (     0         -1          1      )       (  0.2500000 )
                  (     0          0          1      )       (  0.2500000 )

 cart.    s( 6) = ( -0.0000000 -1.0000000  0.0000000 )    f =( -0.3535534 )
                  ( -1.0000000 -0.0000000 -0.0000000 )       (  0.3535534 )
                  (  0.0000000  0.0000000 -1.0000000 )       (  0.3535534 )


      isym =  7      90 deg rotation - cart. axis [0,0,-1]       

 cryst.   s( 7) = (     0          1          0      )    f =(  0.2500000 )
                  (     0          1         -1      )       (  0.2500000 )
                  (    -1          1          0      )       (  0.2500000 )

 cart.    s( 7) = ( -0.0000000  1.0000000 -0.0000000 )    f =( -0.3535534 )
                  ( -1.0000000  0.0000000  0.0000000 )       (  0.3535534 )
                  (  0.0000000 -0.0000000  1.0000000 )       (  0.3535534 )


      isym =  8      90 deg rotation - cart. axis [0,0,1]        

 cryst.   s( 8) = (     1          0         -1      )    f =(  0.2500000 )
                  (     1          0          0      )       (  0.2500000 )
                  (     1         -1          0      )       (  0.2500000 )

 cart.    s( 8) = (  0.0000000 -1.0000000 -0.0000000 )    f =( -0.3535534 )
                  (  1.0000000 -0.0000000  0.0000000 )       (  0.3535534 )
                  ( -0.0000000  0.0000000  1.0000000 )       (  0.3535534 )


      isym =  9     180 deg rotation - cart. axis [1,0,1]        

 cryst.   s( 9) = (    -1          0          0      )    f =(  0.2500000 )
                  (     0          0         -1      )       (  0.2500000 )
                  (     0         -1          0      )       (  0.2500000 )

 cart.    s( 9) = ( -0.0000000 -0.0000000  1.0000000 )    f =( -0.3535534 )
                  (  0.0000000 -1.0000000  0.0000000 )       (  0.3535534 )
                  (  1.0000000  0.0000000 -0.0000000 )       (  0.3535534 )


      isym = 10     180 deg rotation - cart. axis [-1,0,1]       

 cryst.   s(10) = (     1          0          0      )    f =(  0.2500000 )
                  (     1         -1          0      )       (  0.2500000 )
                  (     1          0         -1      )       (  0.2500000 )

 cart.    s(10) = (  0.0000000 -0.0000000 -1.0000000 )    f =( -0.3535534 )
                  ( -0.0000000 -1.0000000 -0.0000000 )       (  0.3535534 )
                  ( -1.0000000  0.0000000  0.0000000 )       (  0.3535534 )


      isym = 11      90 deg rotation - cart. axis [0,1,0]        

 cryst.   s(11) = (     0          1         -1      )    f =(  0.2500000 )
                  (    -1          1          0      )       (  0.2500000 )
                  (     0          1          0      )       (  0.2500000 )

 cart.    s(11) = (  0.0000000  0.0000000  1.0000000 )    f =( -0.3535534 )
                  ( -0.0000000  1.0000000  0.0000000 )       (  0.3535534 )
                  ( -1.0000000 -0.0000000 -0.0000000 )       (  0.3535534 )


      isym = 12      90 deg rotation - cart. axis [0,-1,0]       

 cryst.   s(12) = (     0         -1          1      )    f =(  0.2500000 )
                  (     0          0          1      )       (  0.2500000 )
                  (    -1          0          1      )       (  0.2500000 )

 cart.    s(12) = ( -0.0000000  0.0000000 -1.0000000 )    f =( -0.3535534 )
                  (  0.0000000  1.0000000 -0.0000000 )       (  0.3535534 )
                  (  1.0000000 -0.0000000  0.0000000 )       (  0.3535534 )


      isym = 13     180 deg rotation - cart. axis [0,1,1]        

 cryst.   s(13) = (    -1          1          0      )    f =(  0.2500000 )
                  (     0          1          0      )       (  0.2500000 )
                  (     0          1         -1      )       (  0.2500000 )

 cart.    s(13) = ( -1.0000000 -0.0000000  0.0000000 )    f =( -0.3535534 )
                  ( -0.0000000  0.0000000  1.0000000 )       (  0.3535534 )
                  (  0.0000000  1.0000000 -0.0000000 )       (  0.3535534 )


      isym = 14     180 deg rotation - cart. axis [0,1,-1]       

 cryst.   s(14) = (     0          0         -1      )    f =(  0.2500000 )
                  (     0         -1          0      )       (  0.2500000 )
                  (    -1          0          0      )       (  0.2500000 )

 cart.    s(14) = ( -1.0000000  0.0000000 -0.0000000 )    f =( -0.3535534 )
                  ( -0.0000000 -0.0000000 -1.0000000 )       (  0.3535534 )
                  (  0.0000000 -1.0000000  0.0000000 )       (  0.3535534 )


      isym = 15      90 deg rotation - cart. axis [-1,0,0]       

 cryst.   s(15) = (     0          0          1      )    f =(  0.2500000 )
                  (    -1          0          1      )       (  0.2500000 )
                  (     0         -1          1      )       (  0.2500000 )

 cart.    s(15) = (  1.0000000  0.0000000  0.0000000 )    f =( -0.3535534 )
                  (  0.0000000 -0.0000000  1.0000000 )       (  0.3535534 )
                  ( -0.0000000 -1.0000000 -0.0000000 )       (  0.3535534 )


      isym = 16      90 deg rotation - cart. axis [1,0,0]        

 cryst.   s(16) = (     1         -1          0      )    f =(  0.2500000 )
                  (     1          0         -1      )       (  0.2500000 )
                  (     1          0          0      )       (  0.2500000 )

 cart.    s(16) = (  1.0000000 -0.0000000 -0.0000000 )    f =( -0.3535534 )
                  (  0.0000000  0.0000000 -1.0000000 )       (  0.3535534 )
                  ( -0.0000000  1.0000000  0.0000000 )       (  0.3535534 )


      isym = 17     120 deg rotation - cart. axis [-1,-1,-1]     

 cryst.   s(17) = (    -1          0          1      )
                  (    -1          1          0      )
                  (    -1          0          0      )

 cart.    s(17) = ( -0.0000000  1.0000000  0.0000000 )
                  (  0.0000000  0.0000000  1.0000000 )
                  (  1.0000000 -0.0000000 -0.0000000 )


      isym = 18     120 deg rotation - cart. axis [-1,1,1]       

 cryst.   s(18) = (     0          1          0      )
                  (     0          0          1      )
                  (     1          0          0      )

 cart.    s(18) = (  0.0000000 -1.0000000  0.0000000 )
                  ( -0.0000000 -0.0000000  1.0000000 )
                  ( -1.0000000  0.0000000 -0.0000000 )


      isym = 19     120 deg rotation - cart. axis [1,1,-1]       

 cryst.   s(19) = (     1          0         -1      )
                  (     0          0         -1      )
                  (     0          1         -1      )

 cart.    s(19) = (  0.0000000  1.0000000 -0.0000000 )
                  ( -0.0000000  0.0000000 -1.0000000 )
                  ( -1.0000000 -0.0000000  0.0000000 )


      isym = 20     120 deg rotation - cart. axis [1,-1,1]       

 cryst.   s(20) = (     0         -1          0      )
                  (     1         -1          0      )
                  (     0         -1          1      )

 cart.    s(20) = ( -0.0000000 -1.0000000 -0.0000000 )
                  (  0.0000000 -0.0000000 -1.0000000 )
                  (  1.0000000  0.0000000  0.0000000 )


      isym = 21     120 deg rotation - cart. axis [1,1,1]        

 cryst.   s(21) = (     0          0         -1      )
                  (     0          1         -1      )
                  (     1          0         -1      )

 cart.    s(21) = (  0.0000000 -0.0000000  1.0000000 )
                  (  1.0000000  0.0000000  0.0000000 )
                  ( -0.0000000  1.0000000 -0.0000000 )


      isym = 22     120 deg rotation - cart. axis [-1,1,-1]      

 cryst.   s(22) = (    -1          1          0      )
                  (    -1          0          0      )
                  (    -1          0          1      )

 cart.    s(22) = ( -0.0000000  0.0000000  1.0000000 )
                  ( -1.0000000 -0.0000000  0.0000000 )
                  (  0.0000000 -1.0000000 -0.0000000 )


      isym = 23     120 deg rotation - cart. axis [1,-1,-1]      

 cryst.   s(23) = (     0          0          1      )
                  (     1          0          0      )
                  (     0          1          0      )

 cart.    s(23) = ( -0.0000000 -0.0000000 -1.0000000 )
                  ( -1.0000000  0.0000000 -0.0000000 )
                  (  0.0000000  1.0000000  0.0000000 )


      isym = 24     120 deg rotation - cart. axis [-1,-1,1]      

 cryst.   s(24) = (     1         -1          0      )
                  (     0         -1          1      )
                  (     0         -1          0      )

 cart.    s(24) = (  0.0000000  0.0000000 -1.0000000 )
                  (  1.0000000 -0.0000000 -0.0000000 )
                  ( -0.0000000 -1.0000000  0.0000000 )


      isym = 25     inversion                                    

 cryst.   s(25) = (    -1          0          0      )    f =(  0.2500000 )
                  (     0         -1          0      )       (  0.2500000 )
                  (     0          0         -1      )       (  0.2500000 )

 cart.    s(25) = ( -1.0000000 -0.0000000  0.0000000 )    f =( -0.3535534 )
                  ( -0.0000000 -1.0000000 -0.0000000 )       (  0.3535534 )
                  (  0.0000000  0.0000000 -1.0000000 )       (  0.3535534 )


      isym = 26     inv. 180 deg rotation - cart. axis [0,0,1]   

 cryst.   s(26) = (     0         -1          1      )    f =(  0.2500000 )
                  (    -1          0          1      )       (  0.2500000 )
                  (     0          0          1      )       (  0.2500000 )

 cart.    s(26) = (  1.0000000  0.0000000  0.0000000 )    f =( -0.3535534 )
                  (  0.0000000  1.0000000 -0.0000000 )       (  0.3535534 )
                  ( -0.0000000 -0.0000000 -1.0000000 )       (  0.3535534 )


      isym = 27     inv. 180 deg rotation - cart. axis [0,1,0]   

 cryst.   s(27) = (     1          0          0      )    f =(  0.2500000 )
                  (     1          0         -1      )       (  0.2500000 )
                  (     1         -1          0      )       (  0.2500000 )

 cart.    s(27) = (  1.0000000 -0.0000000 -0.0000000 )    f =( -0.3535534 )
                  (  0.0000000 -1.0000000  0.0000000 )       (  0.3535534 )
                  ( -0.0000000  0.0000000  1.0000000 )       (  0.3535534 )


      isym = 28     inv. 180 deg rotation - cart. axis [1,0,0]   

 cryst.   s(28) = (     0          1         -1      )    f =(  0.2500000 )
                  (     0          1          0      )       (  0.2500000 )
                  (    -1          1          0      )       (  0.2500000 )

 cart.    s(28) = ( -1.0000000  0.0000000 -0.0000000 )    f =( -0.3535534 )
                  ( -0.0000000  1.0000000  0.0000000 )       (  0.3535534 )
                  (  0.0000000 -0.0000000  1.0000000 )       (  0.3535534 )


      isym = 29     inv. 180 deg rotation - cart. axis [1,1,0]   

 cryst.   s(29) = (     0          1          0      )
                  (     1          0          0      )
                  (     0          0          1      )

 cart.    s(29) = ( -0.0000000 -1.0000000 -0.0000000 )
                  ( -1.0000000 -0.0000000  0.0000000 )
                  (  0.0000000  0.0000000  1.0000000 )


      isym = 30     inv. 180 deg rotation - cart. axis [1,-1,0]  

 cryst.   s(30) = (     1          0         -1      )
                  (     0          1         -1      )
                  (     0          0         -1      )

 cart.    s(30) = (  0.0000000  1.0000000 -0.0000000 )
                  (  1.0000000  0.0000000  0.0000000 )
                  ( -0.0000000 -0.0000000  1.0000000 )


      isym = 31     inv.  90 deg rotation - cart. axis [0,0,-1]  

 cryst.   s(31) = (     0         -1          0      )
                  (     0         -1          1      )
                  (     1         -1          0      )

 cart.    s(31) = (  0.0000000 -1.0000000  0.0000000 )
                  (  1.0000000 -0.0000000 -0.0000000 )
                  ( -0.0000000  0.0000000 -1.0000000 )


      isym = 32     inv.  90 deg rotation - cart. axis [0,0,1]   

 cryst.   s(32) = (    -1          0          1      )
                  (    -1          0          0      )
                  (    -1          1          0      )

 cart.    s(32) = ( -0.0000000  1.0000000  0.0000000 )
                  ( -1.0000000  0.0000000 -0.0000000 )
                  (  0.0000000 -0.0000000 -1.0000000 )


      isym = 33     inv. 180 deg rotation - cart. axis [1,0,1]   

 cryst.   s(33) = (     1          0          0      )
                  (     0          0          1      )
                  (     0          1          0      )

 cart.    s(33) = (  0.0000000  0.0000000 -1.0000000 )
                  ( -0.0000000  1.0000000 -0.0000000 )
                  ( -1.0000000 -0.0000000  0.0000000 )


      isym = 34     inv. 180 deg rotation - cart. axis [-1,0,1]  

 cryst.   s(34) = (    -1          0          0      )
                  (    -1          1          0      )
                  (    -1          0          1      )

 cart.    s(34) = ( -0.0000000  0.0000000  1.0000000 )
                  (  0.0000000  1.0000000  0.0000000 )
                  (  1.0000000 -0.0000000 -0.0000000 )


      isym = 35     inv.  90 deg rotation - cart. axis [0,1,0]   

 cryst.   s(35) = (     0         -1          1      )
                  (     1         -1          0      )
                  (     0         -1          0      )

 cart.    s(35) = ( -0.0000000 -0.0000000 -1.0000000 )
                  (  0.0000000 -1.0000000 -0.0000000 )
                  (  1.0000000  0.0000000  0.0000000 )


      isym = 36     inv.  90 deg rotation - cart. axis [0,-1,0]  

 cryst.   s(36) = (     0          1         -1      )
                  (     0          0         -1      )
                  (     1          0         -1      )

 cart.    s(36) = (  0.0000000 -0.0000000  1.0000000 )
                  ( -0.0000000 -1.0000000  0.0000000 )
                  ( -1.0000000  0.0000000 -0.0000000 )


      isym = 37     inv. 180 deg rotation - cart. axis [0,1,1]   

 cryst.   s(37) = (     1         -1          0      )
                  (     0         -1          0      )
                  (     0         -1          1      )

 cart.    s(37) = (  1.0000000  0.0000000 -0.0000000 )
                  (  0.0000000 -0.0000000 -1.0000000 )
                  ( -0.0000000 -1.0000000  0.0000000 )


      isym = 38     inv. 180 deg rotation - cart. axis [0,1,-1]  

 cryst.   s(38) = (     0          0          1      )
                  (     0          1          0      )
                  (     1          0          0      )

 cart.    s(38) = (  1.0000000 -0.0000000  0.0000000 )
                  (  0.0000000  0.0000000  1.0000000 )
                  ( -0.0000000  1.0000000 -0.0000000 )


      isym = 39     inv.  90 deg rotation - cart. axis [-1,0,0]  

 cryst.   s(39) = (     0          0         -1      )
                  (     1          0         -1      )
                  (     0          1         -1      )

 cart.    s(39) = ( -1.0000000 -0.0000000 -0.0000000 )
                  ( -0.0000000  0.0000000 -1.0000000 )
                  (  0.0000000  1.0000000  0.0000000 )


      isym = 40     inv.  90 deg rotation - cart. axis [1,0,0]   

 cryst.   s(40) = (    -1          1          0      )
                  (    -1          0          1      )
                  (    -1          0          0      )

 cart.    s(40) = ( -1.0000000  0.0000000  0.0000000 )
                  ( -0.0000000 -0.0000000  1.0000000 )
                  (  0.0000000 -1.0000000 -0.0000000 )


      isym = 41     inv. 120 deg rotation - cart. axis [-1,-1,-1]

 cryst.   s(41) = (     1          0         -1      )    f =(  0.2500000 )
                  (     1         -1          0      )       (  0.2500000 )
                  (     1          0          0      )       (  0.2500000 )

 cart.    s(41) = (  0.0000000 -1.0000000 -0.0000000 )    f =( -0.3535534 )
                  ( -0.0000000 -0.0000000 -1.0000000 )       (  0.3535534 )
                  ( -1.0000000  0.0000000  0.0000000 )       (  0.3535534 )


      isym = 42     inv. 120 deg rotation - cart. axis [-1,1,1]  

 cryst.   s(42) = (     0         -1          0      )    f =(  0.2500000 )
                  (     0          0         -1      )       (  0.2500000 )
                  (    -1          0          0      )       (  0.2500000 )

 cart.    s(42) = ( -0.0000000  1.0000000 -0.0000000 )    f =( -0.3535534 )
                  (  0.0000000  0.0000000 -1.0000000 )       (  0.3535534 )
                  (  1.0000000 -0.0000000  0.0000000 )       (  0.3535534 )


      isym = 43     inv. 120 deg rotation - cart. axis [1,1,-1]  

 cryst.   s(43) = (    -1          0          1      )    f =(  0.2500000 )
                  (     0          0          1      )       (  0.2500000 )
                  (     0         -1          1      )       (  0.2500000 )

 cart.    s(43) = ( -0.0000000 -1.0000000  0.0000000 )    f =( -0.3535534 )
                  (  0.0000000 -0.0000000  1.0000000 )       (  0.3535534 )
                  (  1.0000000  0.0000000 -0.0000000 )       (  0.3535534 )


      isym = 44     inv. 120 deg rotation - cart. axis [1,-1,1]  

 cryst.   s(44) = (     0          1          0      )    f =(  0.2500000 )
                  (    -1          1          0      )       (  0.2500000 )
                  (     0          1         -1      )       (  0.2500000 )

 cart.    s(44) = (  0.0000000  1.0000000  0.0000000 )    f =( -0.3535534 )
                  ( -0.0000000  0.0000000  1.0000000 )       (  0.3535534 )
                  ( -1.0000000 -0.0000000 -0.0000000 )       (  0.3535534 )


      isym = 45     inv. 120 deg rotation - cart. axis [1,1,1]   

 cryst.   s(45) = (     0          0          1      )    f =(  0.2500000 )
                  (     0         -1          1      )       (  0.2500000 )
                  (    -1          0          1      )       (  0.2500000 )

 cart.    s(45) = ( -0.0000000  0.0000000 -1.0000000 )    f =( -0.3535534 )
                  ( -1.0000000 -0.0000000 -0.0000000 )       (  0.3535534 )
                  (  0.0000000 -1.0000000  0.0000000 )       (  0.3535534 )


      isym = 46     inv. 120 deg rotation - cart. axis [-1,1,-1] 

 cryst.   s(46) = (     1         -1          0      )    f =(  0.2500000 )
                  (     1          0          0      )       (  0.2500000 )
                  (     1          0         -1      )       (  0.2500000 )

 cart.    s(46) = (  0.0000000 -0.0000000 -1.0000000 )    f =( -0.3535534 )
                  (  1.0000000  0.0000000 -0.0000000 )       (  0.3535534 )
                  ( -0.0000000  1.0000000  0.0000000 )       (  0.3535534 )


      isym = 47     inv. 120 deg rotation - cart. axis [1,-1,-1] 

 cryst.   s(47) = (     0          0         -1      )    f =(  0.2500000 )
                  (    -1          0          0      )       (  0.2500000 )
                  (     0         -1          0      )       (  0.2500000 )

 cart.    s(47) = (  0.0000000  0.0000000  1.0000000 )    f =( -0.3535534 )
                  (  1.0000000 -0.0000000  0.0000000 )       (  0.3535534 )
                  ( -0.0000000 -1.0000000 -0.0000000 )       (  0.3535534 )


      isym = 48     inv. 120 deg rotation - cart. axis [-1,-1,1] 

 cryst.   s(48) = (    -1          1          0      )    f =(  0.2500000 )
                  (     0          1         -1      )       (  0.2500000 )
                  (     0          1          0      )       (  0.2500000 )

 cart.    s(48) = ( -0.0000000 -0.0000000  1.0000000 )    f =( -0.3535534 )
                  ( -1.0000000  0.0000000  0.0000000 )       (  0.3535534 )
                  (  0.0000000  1.0000000 -0.0000000 )       (  0.3535534 )


   Cartesian axes

     site n.     atom                  positions (alat units)
         1        Si     tau(   1) = (   0.0000000   0.0000000   0.0000000  )
         2        Si     tau(   2) = (   0.3535534   0.3535534   0.3535534  )

   Crystallographic axes

     site n.     atom                  positions (cryst. coord.)
         1        Si     tau(   1) = (  0.0000000  0.0000000  0.0000000  )
         2        Si     tau(   2) = ( -0.2500000  0.7500000 -0.2500000  )

     number of k points=   104  Marzari-Vanderbilt smearing, width (Ry)=  0.0200
                       cart. coord. in units 2pi/alat
        k(    1) = (   0.0000000   0.0000000   0.0000000), wk =   0.0007289
        k(    2) = (  -0.0505076   0.0505076  -0.0505076), wk =   0.0058309
        k(    3) = (  -0.1010153   0.1010153  -0.1010153), wk =   0.0058309
        k(    4) = (  -0.1515229   0.1515229  -0.1515229), wk =   0.0058309
        k(    5) = (  -0.2020305   0.2020305  -0.2020305), wk =   0.0058309
        k(    6) = (  -0.2525381   0.2525381  -0.2525381), wk =   0.0058309
        k(    7) = (  -0.3030458   0.3030458  -0.3030458), wk =   0.0058309
        k(    8) = (   0.3535534  -0.3535534   0.3535534), wk =   0.0029155
        k(    9) = (   0.0000000   0.1010153   0.0000000), wk =   0.0043732
        k(   10) = (  -0.0505076   0.1515229  -0.0505076), wk =   0.0174927
        k(   11) = (  -0.1010153   0.2020305  -0.1010153), wk =   0.0174927
        k(   12) = (  -0.1515229   0.2525381  -0.1515229), wk =   0.0174927
        k(   13) = (  -0.2020305   0.3030458  -0.2020305), wk =   0.0174927
        k(   14) = (  -0.2525381   0.3535534  -0.2525381), wk =   0.0174927
        k(   15) = (   0.4040610  -0.3030458   0.4040610), wk =   0.0174927
        k(   16) = (   0.3535534  -0.2525381   0.3535534), wk =   0.0174927
        k(   17) = (   0.3030458  -0.2020305   0.3030458), wk =   0.0174927
        k(   18) = (   0.2525381  -0.1515229   0.2525381), wk =   0.0174927
        k(   19) = (   0.2020305  -0.1010153   0.2020305), wk =   0.0174927
        k(   20) = (   0.1515229  -0.0505076   0.1515229), wk =   0.0174927
        k(   21) = (   0.1010153   0.0000000   0.1010153), wk =   0.0087464
        k(   22) = (   0.0000000   0.2020305   0.0000000), wk =   0.0043732
        k(   23) = (  -0.0505076   0.2525381  -0.0505076), wk =   0.0174927
        k(   24) = (  -0.1010153   0.3030458  -0.1010153), wk =   0.0174927
        k(   25) = (  -0.1515229   0.3535534  -0.1515229), wk =   0.0174927
        k(   26) = (  -0.2020305   0.4040610  -0.2020305), wk =   0.0174927
        k(   27) = (   0.4545686  -0.2525381   0.4545686), wk =   0.0174927
        k(   28) = (   0.4040610  -0.2020305   0.4040610), wk =   0.0174927
        k(   29) = (   0.3535534  -0.1515229   0.3535534), wk =   0.0174927
        k(   30) = (   0.3030458  -0.1010153   0.3030458), wk =   0.0174927
        k(   31) = (   0.2525381  -0.0505076   0.2525381), wk =   0.0174927
        k(   32) = (   0.2020305  -0.0000000   0.2020305), wk =   0.0087464
        k(   33) = (   0.0000000   0.3030458   0.0000000), wk =   0.0043732
        k(   34) = (  -0.0505076   0.3535534  -0.0505076), wk =   0.0174927
        k(   35) = (  -0.1010153   0.4040610  -0.1010153), wk =   0.0174927
        k(   36) = (  -0.1515229   0.4545686  -0.1515229), wk =   0.0174927
        k(   37) = (   0.5050763  -0.2020305   0.5050763), wk =   0.0174927
        k(   38) = (   0.4545686  -0.1515229   0.4545686), wk =   0.0174927
        k(   39) = (   0.4040610  -0.1010153   0.4040610), wk =   0.0174927
        k(   40) = (   0.3535534  -0.0505076   0.3535534), wk =   0.0174927
        k(   41) = (   0.3030458  -0.0000000   0.3030458), wk =   0.0087464
        k(   42) = (   0.0000000   0.4040610   0.0000000), wk =   0.0043732
        k(   43) = (  -0.0505076   0.4545686  -0.0505076), wk =   0.0174927
        k(   44) = (  -0.1010153   0.5050763  -0.1010153), wk =   0.0174927
        k(   45) = (   0.5555839  -0.1515229   0.5555839), wk =   0.0174927
        k(   46) = (   0.5050763  -0.1010153   0.5050763), wk =   0.0174927
        k(   47) = (   0.4545686  -0.0505076   0.4545686), wk =   0.0174927
        k(   48) = (   0.4040610   0.0000000   0.4040610), wk =   0.0087464
        k(   49) = (  -0.0000000   0.5050763  -0.0000000), wk =   0.0043732
        k(   50) = (  -0.0505076   0.5555839  -0.0505076), wk =   0.0174927
        k(   51) = (   0.6060915  -0.1010153   0.6060915), wk =   0.0174927
        k(   52) = (   0.5555839  -0.0505076   0.5555839), wk =   0.0174927
        k(   53) = (   0.5050763   0.0000000   0.5050763), wk =   0.0087464
        k(   54) = (   0.0000000   0.6060915   0.0000000), wk =   0.0043732
        k(   55) = (   0.6565992  -0.0505076   0.6565992), wk =   0.0174927
        k(   56) = (   0.6060915  -0.0000000   0.6060915), wk =   0.0087464
        k(   57) = (   0.0000000  -0.7071068   0.0000000), wk =   0.0021866
        k(   58) = (  -0.1010153   0.2020305   0.0000000), wk =   0.0174927
        k(   59) = (  -0.1515229   0.2525381  -0.0505076), wk =   0.0349854
        k(   60) = (  -0.2020305   0.3030458  -0.1010153), wk =   0.0349854
        k(   61) = (  -0.2525381   0.3535534  -0.1515229), wk =   0.0349854
        k(   62) = (   0.4040610  -0.3030458   0.5050763), wk =   0.0349854
        k(   63) = (   0.3535534  -0.2525381   0.4545686), wk =   0.0174927
        k(   64) = (  -0.1010153   0.3030458   0.0000000), wk =   0.0174927
        k(   65) = (  -0.1515229   0.3535534  -0.0505076), wk =   0.0349854
        k(   66) = (  -0.2020305   0.4040610  -0.1010153), wk =   0.0349854
        k(   67) = (   0.4545686  -0.2525381   0.5555839), wk =   0.0349854
        k(   68) = (   0.4040610  -0.2020305   0.5050763), wk =   0.0349854
        k(   69) = (   0.3535534  -0.1515229   0.4545686), wk =   0.0349854
        k(   70) = (   0.3030458  -0.1010153   0.4040610), wk =   0.0349854
        k(   71) = (   0.2525381  -0.0505076   0.3535534), wk =   0.0349854
        k(   72) = (   0.2020305  -0.0000000   0.3030458), wk =   0.0174927
        k(   73) = (  -0.1010153   0.4040610  -0.0000000), wk =   0.0174927
        k(   74) = (  -0.1515229   0.4545686  -0.0505076), wk =   0.0349854
        k(   75) = (   0.5050763  -0.2020305   0.6060915), wk =   0.0349854
        k(   76) = (   0.4545686  -0.1515229   0.5555839), wk =   0.0349854
        k(   77) = (   0.4040610  -0.1010153   0.5050763), wk =   0.0349854
        k(   78) = (   0.3535534  -0.0505076   0.4545686), wk =   0.0349854
        k(   79) = (   0.3030458  -0.0000000   0.4040610), wk =   0.0174927
        k(   80) = (  -0.1010153   0.5050763   0.0000000), wk =   0.0174927
        k(   81) = (   0.5555839  -0.1515229   0.6565992), wk =   0.0349854
        k(   82) = (   0.5050763  -0.1010153   0.6060915), wk =   0.0349854
        k(   83) = (   0.4545686  -0.0505076   0.5555839), wk =   0.0349854
        k(   84) = (   0.4040610   0.0000000   0.5050763), wk =   0.0174927
        k(   85) = (   0.6060915  -0.1010153   0.7071068), wk =   0.0174927
        k(   86) = (   0.5555839  -0.0505076   0.6565992), wk =   0.0349854
        k(   87) = (   0.5050763   0.0000000   0.6060915), wk =   0.0174927
        k(   88) = (  -0.1010153  -0.7071068   0.0000000), wk =   0.0087464
        k(   89) = (  -0.2020305   0.4040610   0.0000000), wk =   0.0174927
        k(   90) = (   0.4545686  -0.2525381   0.6565992), wk =   0.0349854
        k(   91) = (   0.4040610  -0.2020305   0.6060915), wk =   0.0349854
        k(   92) = (   0.3535534  -0.1515229   0.5555839), wk =   0.0174927
        k(   93) = (   0.5050763  -0.2020305   0.7071068), wk =   0.0174927
        k(   94) = (   0.4545686  -0.1515229   0.6565992), wk =   0.0349854
        k(   95) = (   0.4040610  -0.1010153   0.6060915), wk =   0.0349854
        k(   96) = (   0.3535534  -0.0505076   0.5555839), wk =   0.0349854
        k(   97) = (   0.3030458  -0.0000000   0.5050763), wk =   0.0174927
        k(   98) = (   0.5050763  -0.1010153   0.7071068), wk =   0.0174927
        k(   99) = (   0.4545686  -0.0505076   0.6565992), wk =   0.0349854
        k(  100) = (   0.4040610   0.0000000   0.6060915), wk =   0.0174927
        k(  101) = (  -0.2020305  -0.7071068  -0.0000000), wk =   0.0087464
        k(  102) = (   0.4040610  -0.1010153   0.7071068), wk =   0.0174927
        k(  103) = (   0.3535534  -0.0505076   0.6565992), wk =   0.0174927
        k(  104) = (  -0.3030458  -0.7071068  -0.0000000), wk =   0.0087464

                       cryst. coord.
        k(    1) = (   0.0000000   0.0000000   0.0000000), wk =   0.0007289
        k(    2) = (   0.0000000   0.0000000   0.0714286), wk =   0.0058309
        k(    3) = (   0.0000000   0.0000000   0.1428571), wk =   0.0058309
        k(    4) = (  -0.0000000  -0.0000000   0.2142857), wk =   0.0058309
        k(    5) = (   0.0000000   0.0000000   0.2857143), wk =   0.0058309
        k(    6) = (   0.0000000   0.0000000   0.3571429), wk =   0.0058309
        k(    7) = (  -0.0000000  -0.0000000   0.4285714), wk =   0.0058309
        k(    8) = (  -0.0000000  -0.0000000  -0.5000000), wk =   0.0029155
        k(    9) = (  -0.0000000   0.0714286   0.0714286), wk =   0.0043732
        k(   10) = (  -0.0000000   0.0714286   0.1428571), wk =   0.0174927
        k(   11) = (  -0.0000000   0.0714286   0.2142857), wk =   0.0174927
        k(   12) = (  -0.0000000   0.0714286   0.2857143), wk =   0.0174927
        k(   13) = (   0.0000000   0.0714286   0.3571429), wk =   0.0174927
        k(   14) = (   0.0000000   0.0714286   0.4285714), wk =   0.0174927
        k(   15) = (  -0.0000000   0.0714286  -0.5000000), wk =   0.0174927
        k(   16) = (  -0.0000000   0.0714286  -0.4285714), wk =   0.0174927
        k(   17) = (   0.0000000   0.0714286  -0.3571429), wk =   0.0174927
        k(   18) = (  -0.0000000   0.0714286  -0.2857143), wk =   0.0174927
        k(   19) = (  -0.0000000   0.0714286  -0.2142857), wk =   0.0174927
        k(   20) = (  -0.0000000   0.0714286  -0.1428571), wk =   0.0174927
        k(   21) = (  -0.0000000   0.0714286  -0.0714286), wk =   0.0087464
        k(   22) = (  -0.0000000   0.1428571   0.1428571), wk =   0.0043732
        k(   23) = (  -0.0000000   0.1428571   0.2142857), wk =   0.0174927
        k(   24) = (  -0.0000000   0.1428571   0.2857143), wk =   0.0174927
        k(   25) = (  -0.0000000   0.1428571   0.3571429), wk =   0.0174927
        k(   26) = (  -0.0000000   0.1428571   0.4285714), wk =   0.0174927
        k(   27) = (   0.0000000   0.1428571  -0.5000000), wk =   0.0174927
        k(   28) = (  -0.0000000   0.1428571  -0.4285714), wk =   0.0174927
        k(   29) = (  -0.0000000   0.1428571  -0.3571429), wk =   0.0174927
        k(   30) = (   0.0000000   0.1428571  -0.2857143), wk =   0.0174927
        k(   31) = (  -0.0000000   0.1428571  -0.2142857), wk =   0.0174927
        k(   32) = (  -0.0000000   0.1428571  -0.1428571), wk =   0.0087464
        k(   33) = (   0.0000000   0.2142857   0.2142857), wk =   0.0043732
        k(   34) = (   0.0000000   0.2142857   0.2857143), wk =   0.0174927
        k(   35) = (   0.0000000   0.2142857   0.3571429), wk =   0.0174927
        k(   36) = (  -0.0000000   0.2142857   0.4285714), wk =   0.0174927
        k(   37) = (  -0.0000000   0.2142857  -0.5000000), wk =   0.0174927
        k(   38) = (   0.0000000   0.2142857  -0.4285714), wk =   0.0174927
        k(   39) = (   0.0000000   0.2142857  -0.3571429), wk =   0.0174927
        k(   40) = (  -0.0000000   0.2142857  -0.2857143), wk =   0.0174927
        k(   41) = (   0.0000000   0.2142857  -0.2142857), wk =   0.0087464
        k(   42) = (  -0.0000000   0.2857143   0.2857143), wk =   0.0043732
        k(   43) = (   0.0000000   0.2857143   0.3571429), wk =   0.0174927
        k(   44) = (  -0.0000000   0.2857143   0.4285714), wk =   0.0174927
        k(   45) = (   0.0000000   0.2857143  -0.5000000), wk =   0.0174927
        k(   46) = (  -0.0000000   0.2857143  -0.4285714), wk =   0.0174927
        k(   47) = (  -0.0000000   0.2857143  -0.3571429), wk =   0.0174927
        k(   48) = (  -0.0000000   0.2857143  -0.2857143), wk =   0.0087464
        k(   49) = (   0.0000000   0.3571429   0.3571429), wk =   0.0043732
        k(   50) = (   0.0000000   0.3571429   0.4285714), wk =   0.0174927
        k(   51) = (   0.0000000   0.3571429  -0.5000000), wk =   0.0174927
        k(   52) = (  -0.0000000   0.3571429  -0.4285714), wk =   0.0174927
        k(   53) = (  -0.0000000   0.3571429  -0.3571429), wk =   0.0087464
        k(   54) = (   0.0000000   0.4285714   0.4285714), wk =   0.0043732
        k(   55) = (  -0.0000000   0.4285714  -0.5000000), wk =   0.0174927
        k(   56) = (   0.0000000   0.4285714  -0.4285714), wk =   0.0087464
        k(   57) = (   0.0000000  -0.5000000  -0.5000000), wk =   0.0021866
        k(   58) = (   0.0714286   0.1428571   0.2142857), wk =   0.0174927
        k(   59) = (   0.0714286   0.1428571   0.2857143), wk =   0.0349854
        k(   60) = (   0.0714286   0.1428571   0.3571429), wk =   0.0349854
        k(   61) = (   0.0714286   0.1428571   0.4285714), wk =   0.0349854
        k(   62) = (   0.0714286   0.1428571  -0.5000000), wk =   0.0349854
        k(   63) = (   0.0714286   0.1428571  -0.4285714), wk =   0.0174927
        k(   64) = (   0.0714286   0.2142857   0.2857143), wk =   0.0174927
        k(   65) = (   0.0714286   0.2142857   0.3571429), wk =   0.0349854
        k(   66) = (   0.0714286   0.2142857   0.4285714), wk =   0.0349854
        k(   67) = (   0.0714286   0.2142857  -0.5000000), wk =   0.0349854
        k(   68) = (   0.0714286   0.2142857  -0.4285714), wk =   0.0349854
        k(   69) = (   0.0714286   0.2142857  -0.3571429), wk =   0.0349854
        k(   70) = (   0.0714286   0.2142857  -0.2857143), wk =   0.0349854
        k(   71) = (   0.0714286   0.2142857  -0.2142857), wk =   0.0349854
        k(   72) = (   0.0714286   0.2142857  -0.1428571), wk =   0.0174927
        k(   73) = (   0.0714286   0.2857143   0.3571429), wk =   0.0174927
        k(   74) = (   0.0714286   0.2857143   0.4285714), wk =   0.0349854
        k(   75) = (   0.0714286   0.2857143  -0.5000000), wk =   0.0349854
        k(   76) = (   0.0714286   0.2857143  -0.4285714), wk =   0.0349854
        k(   77) = (   0.0714286   0.2857143  -0.3571429), wk =   0.0349854
        k(   78) = (   0.0714286   0.2857143  -0.2857143), wk =   0.0349854
        k(   79) = (   0.0714286   0.2857143  -0.2142857), wk =   0.0174927
        k(   80) = (   0.0714286   0.3571429   0.4285714), wk =   0.0174927
        k(   81) = (   0.0714286   0.3571429  -0.5000000), wk =   0.0349854
        k(   82) = (   0.0714286   0.3571429  -0.4285714), wk =   0.0349854
        k(   83) = (   0.0714286   0.3571429  -0.3571429), wk =   0.0349854
        k(   84) = (   0.0714286   0.3571429  -0.2857143), wk =   0.0174927
        k(   85) = (   0.0714286   0.4285714  -0.5000000), wk =   0.0174927
        k(   86) = (   0.0714286   0.4285714  -0.4285714), wk =   0.0349854
        k(   87) = (   0.0714286   0.4285714  -0.3571429), wk =   0.0174927
        k(   88) = (   0.0714286  -0.5000000  -0.4285714), wk =   0.0087464
        k(   89) = (   0.1428571   0.2857143   0.4285714), wk =   0.0174927
        k(   90) = (   0.1428571   0.2857143  -0.5000000), wk =   0.0349854
        k(   91) = (   0.1428571   0.2857143  -0.4285714), wk =   0.0349854
        k(   92) = (   0.1428571   0.2857143  -0.3571429), wk =   0.0174927
        k(   93) = (   0.1428571   0.3571429  -0.5000000), wk =   0.0174927
        k(   94) = (   0.1428571   0.3571429  -0.4285714), wk =   0.0349854
        k(   95) = (   0.1428571   0.3571429  -0.3571429), wk =   0.0349854
        k(   96) = (   0.1428571   0.3571429  -0.2857143), wk =   0.0349854
        k(   97) = (   0.1428571   0.3571429  -0.2142857), wk =   0.0174927
        k(   98) = (   0.1428571   0.4285714  -0.4285714), wk =   0.0174927
        k(   99) = (   0.1428571   0.4285714  -0.3571429), wk =   0.0349854
        k(  100) = (   0.1428571   0.4285714  -0.2857143), wk =   0.0174927
        k(  101) = (   0.1428571  -0.5000000  -0.3571429), wk =   0.0087464
        k(  102) = (   0.2142857   0.4285714  -0.3571429), wk =   0.0174927
        k(  103) = (   0.2142857   0.4285714  -0.2857143), wk =   0.0174927
        k(  104) = (   0.2142857  -0.5000000  -0.2857143), wk =   0.0087464

     Dense  grid:    16625 G-vectors     FFT dimensions: (  36,  36,  36)

     Smooth grid:     5961 G-vectors     FFT dimensions: (  32,  32,  32)

     Dynamical RAM for                 wfc:       0.01 MB

     Dynamical RAM for     wfc (w. buffer):       1.56 MB

     Dynamical RAM for           str. fact:       0.04 MB

     Dynamical RAM for           local pot:       0.00 MB

     Dynamical RAM for          nlocal pot:       0.07 MB

     Dynamical RAM for                qrad:       1.24 MB

     Dynamical RAM for          rho,v,vnew:       0.30 MB

     Dynamical RAM for               rhoin:       0.10 MB

     Dynamical RAM for            rho*nmix:       0.68 MB

     Dynamical RAM for           G-vectors:       0.17 MB

     Dynamical RAM for          h,s,v(r/c):       0.01 MB

     Dynamical RAM for          <psi|beta>:       0.00 MB

     Dynamical RAM for                 psi:       0.03 MB

     Dynamical RAM for                hpsi:       0.03 MB

     Dynamical RAM for                spsi:       0.03 MB

     Dynamical RAM for      wfcinit/wfcrot:       0.03 MB

     Dynamical RAM for           addusdens:       7.95 MB

     Dynamical RAM for          addusforce:       8.07 MB

     Dynamical RAM for         addusstress:       8.50 MB

     Estimated static dynamical RAM per process >       3.87 MB

     Estimated max dynamical RAM per process >      13.05 MB

     Estimated total dynamical RAM >      78.32 MB

     Initial potential from superposition of free atoms

     starting charge       7.9989, renormalised to       8.0000
     Starting wfcs are    8 randomized atomic wfcs

     total cpu time spent up to now is        0.2 secs

     Self-consistent Calculation

     iteration #  1     ecut=    30.00 Ry     beta= 0.40
     Davidson diagonalization with overlap

---- Real-time Memory Report at c_bands before calling an iterative solver
             0 MiB given to the printing process from OS
             0 MiB allocation reported by mallinfo(arena+hblkhd)
             0 MiB available memory on the node where the printing process lives
------------------
     ethr =  1.00E-02,  avg # of iterations =  4.3

     Threshold (ethr) on eigenvalues was too large:
     Diagonalizing with lowered threshold

     Davidson diagonalization with overlap

---- Real-time Memory Report at c_bands before calling an iterative solver
             0 MiB given to the printing process from OS
             0 MiB allocation reported by mallinfo(arena+hblkhd)
             0 MiB available memory on the node where the printing process lives
------------------
     ethr =  6.65E-04,  avg # of iterations =  1.7

     total cpu time spent up to now is        0.7 secs

     WARNING: integrated charge=     8.00023359, expected=     8.00000000

     total energy              =     -22.83996368 Ry
     estimated scf accuracy    <       0.05720267 Ry

     iteration #  2     ecut=    30.00 Ry     beta= 0.40
     Davidson diagonalization with overlap

---- Real-time Memory Report at c_bands before calling an iterative solver
             0 MiB given to the printing process from OS
             0 MiB allocation reported by mallinfo(arena+hblkhd)
             0 MiB available memory on the node where the printing process lives
------------------
     ethr =  7.15E-04,  avg # of iterations =  1.0

     total cpu time spent up to now is        0.9 secs

     WARNING: integrated charge=     8.00138141, expected=     8.00000000

     total energy              =     -22.83688748 Ry
     estimated scf accuracy    <       0.01618646 Ry

     iteration #  3     ecut=    30.00 Ry     beta= 0.40
     Davidson diagonalization with overlap

---- Real-time Memory Report at c_bands before calling an iterative solver
             0 MiB given to the printing process from OS
             0 MiB allocation reported by mallinfo(arena+hblkhd)
             0 MiB available memory on the node where the printing process lives
------------------
     ethr =  2.02E-04,  avg # of iterations =  1.9

     total cpu time spent up to now is        1.1 secs

     WARNING: integrated charge=     8.00302131, expected=     8.00000000

     total energy              =     -22.83694560 Ry
     estimated scf accuracy    <       0.00023544 Ry

     iteration #  4     ecut=    30.00 Ry     beta= 0.40
     Davidson diagonalization with overlap

---- Real-time Memory Report at c_bands before calling an iterative solver
             0 MiB given to the printing process from OS
             0 MiB allocation reported by mallinfo(arena+hblkhd)
             0 MiB available memory on the node where the printing process lives
------------------
     ethr =  2.94E-06,  avg # of iterations =  6.9

     total cpu time spent up to now is        1.6 secs

     WARNING: integrated charge=     8.00307348, expected=     8.00000000

     total energy              =     -22.83713466 Ry
     estimated scf accuracy    <       0.00000417 Ry

     iteration #  5     ecut=    30.00 Ry     beta= 0.40
     Davidson diagonalization with overlap

---- Real-time Memory Report at c_bands before calling an iterative solver
             0 MiB given to the printing process from OS
             0 MiB allocation reported by mallinfo(arena+hblkhd)
             0 MiB available memory on the node where the printing process lives
------------------
     ethr =  5.21E-08,  avg # of iterations =  2.0

     total cpu time spent up to now is        1.8 secs

     WARNING: integrated charge=     8.00299688, expected=     8.00000000

     total energy              =     -22.83713186 Ry
     estimated scf accuracy    <       0.00000011 Ry

     iteration #  6     ecut=    30.00 Ry     beta= 0.40
     Davidson diagonalization with overlap

---- Real-time Memory Report at c_bands before calling an iterative solver
             0 MiB given to the printing process from OS
             0 MiB allocation reported by mallinfo(arena+hblkhd)
             0 MiB available memory on the node where the printing process lives
------------------
     ethr =  1.43E-09,  avg # of iterations =  2.6

     total cpu time spent up to now is        2.1 secs

     WARNING: integrated charge=     8.00298453, expected=     8.00000000

     total energy              =     -22.83713207 Ry
     estimated scf accuracy    <       0.00000003 Ry

     iteration #  7     ecut=    30.00 Ry     beta= 0.40
     Davidson diagonalization with overlap

---- Real-time Memory Report at c_bands before calling an iterative solver
             0 MiB given to the printing process from OS
             0 MiB allocation reported by mallinfo(arena+hblkhd)
             0 MiB available memory on the node where the printing process lives
------------------
     ethr =  4.24E-10,  avg # of iterations =  1.7

     total cpu time spent up to now is        2.3 secs

     WARNING: integrated charge=     8.00298988, expected=     8.00000000

     total energy              =     -22.83713420 Ry
     estimated scf accuracy    <          9.4E-10 Ry

     iteration #  8     ecut=    30.00 Ry     beta= 0.40
     Davidson diagonalization with overlap

---- Real-time Memory Report at c_bands before calling an iterative solver
             0 MiB given to the printing process from OS
             0 MiB allocation reported by mallinfo(arena+hblkhd)
             0 MiB available memory on the node where the printing process lives
------------------
     ethr =  1.17E-11,  avg # of iterations =  3.6

     total cpu time spent up to now is        2.6 secs

     WARNING: integrated charge=     8.00298621, expected=     8.00000000

     total energy              =     -22.83713483 Ry
     estimated scf accuracy    <          7.0E-10 Ry

     iteration #  9     ecut=    30.00 Ry     beta= 0.40
     Davidson diagonalization with overlap

---- Real-time Memory Report at c_bands before calling an iterative solver
             0 MiB given to the printing process from OS
             0 MiB allocation reported by mallinfo(arena+hblkhd)
             0 MiB available memory on the node where the printing process lives
------------------
     ethr =  8.70E-12,  avg # of iterations =  1.0

     total cpu time spent up to now is        2.8 secs

     End of self-consistent calculation

          k = 0.0000 0.0000 0.0000 (   725 PWs)   bands (ev):

    -5.6941   6.3958   6.3958   6.3958   8.9655   8.9655   8.9655   9.9672

     occupation numbers 
     1.0000   1.0827   1.0827   1.0827   0.0000   0.0000   0.0000   0.0000

          k =-0.0505 0.0505-0.0505 (   731 PWs)   bands (ev):

    -5.6261   5.7292   6.2850   6.2850   9.0464   9.1282   9.1282  10.4377

     occupation numbers 
     1.0000   1.0000   1.0622   1.0622   0.0000   0.0000   0.0000   0.0000

          k =-0.1010 0.1010-0.1010 (   739 PWs)   bands (ev):

    -5.4237   4.4525   6.0315   6.0315   8.8894   9.4966   9.4966  11.5833

     occupation numbers 
     1.0000   1.0000   1.0050   1.0050   0.0000   0.0000   0.0000   0.0000

          k =-0.1515 0.1515-0.1515 (   733 PWs)   bands (ev):

    -5.0922   3.0932   5.7517   5.7517   8.6202   9.8295   9.8295  12.8571

     occupation numbers 
     1.0000   1.0000   1.0000   1.0000   0.0000   0.0000   0.0000   0.0000

          k =-0.2020 0.2020-0.2020 (   745 PWs)   bands (ev):

    -4.6440   1.7964   5.5082   5.5082   8.3628   9.9422   9.9422  13.9880

     occupation numbers 
     1.0000   1.0000   1.0000   1.0000   0.0000   0.0000   0.0000   0.0000

          k =-0.2525 0.2525-0.2525 (   751 PWs)   bands (ev):

    -4.1098   0.6380   5.3269   5.3269   8.1631   9.8736   9.8736  14.3454

     occupation numbers 
     1.0000   1.0000   1.0000   1.0000   0.0000   0.0000   0.0000   0.0000

          k =-0.3030 0.3030-0.3030 (   739 PWs)   bands (ev):

    -3.5799  -0.2723   5.2165   5.2165   8.0390   9.7717   9.7717  14.2178

     occupation numbers 
     1.0000   1.0000   1.0000   1.0000   0.0000   0.0000   0.0000   0.0000

          k = 0.3536-0.3536 0.3536 (   754 PWs)   bands (ev):

    -3.3163  -0.6636   5.1795   5.1795   7.9970   9.7286   9.7286  14.1523

     occupation numbers 
     1.0000   1.0000   1.0000   1.0000   0.0000   0.0000   0.0000   0.0000

          k = 0.0000 0.1010 0.0000 (   733 PWs)   bands (ev):

    -5.6034   5.8747   6.0560   6.0560   8.7554   9.4167   9.4167  10.4555

     occupation numbers 
     1.0000   1.0004   1.0070   1.0070   0.0000   0.0000   0.0000   0.0000

          k =-0.0505 0.1515-0.0505 (   732 PWs)   bands (ev):

    -5.4456   4.8385   5.7455   5.9393   8.7630   9.5468   9.8672  11.2201

     occupation numbers 
     1.0000   1.0000   1.0000   1.0012   0.0000   0.0000   0.0000   0.0000

          k =-0.1010 0.2020-0.1010 (   737 PWs)   bands (ev):

    -5.1564   3.5294   5.4515   5.6891   8.8957   9.5314  10.2688  11.8897

     occupation numbers 
     1.0000   1.0000   1.0000   1.0000   0.0000   0.0000   0.0000   0.0000

          k =-0.1515 0.2525-0.1515 (   739 PWs)   bands (ev):

    -4.7453   2.2269   5.2212   5.3866   8.7889   9.6607  10.4280  12.2559

     occupation numbers 
     1.0000   1.0000   1.0000   1.0000   0.0000   0.0000   0.0000   0.0000

          k =-0.2020 0.3030-0.2020 (   739 PWs)   bands (ev):

    -4.2344   1.0269   5.0737   5.1066   8.6097   9.6848  10.3395  12.9555

     occupation numbers 
     1.0000   1.0000   1.0000   1.0000   0.0000   0.0000   0.0000   0.0000

          k =-0.2525 0.3536-0.2525 (   744 PWs)   bands (ev):

    -3.6854   0.0217   4.8810   5.0148   8.4733   9.6445  10.1560  13.8760

     occupation numbers 
     1.0000   1.0000   1.0000   1.0000   0.0000   0.0000   0.0000   0.0000

          k = 0.4041-0.3030 0.4041 (   743 PWs)   bands (ev):

    -3.2892  -0.5840   4.7254   5.0430   8.4092   9.6519   9.9972  14.3607

     occupation numbers 
     1.0000   1.0000   1.0000   1.0000   0.0000   0.0000   0.0000   0.0000

          k = 0.3536-0.2525 0.3536 (   740 PWs)   bands (ev):

    -3.3830  -0.4477   4.6495   5.1528   8.4253   9.7487   9.9128  14.4157

     occupation numbers 
     1.0000   1.0000   1.0000   1.0000   0.0000   0.0000   0.0000   0.0000

          k = 0.3030-0.2020 0.3030 (   743 PWs)   bands (ev):

    -3.8661   0.3286   4.6610   5.3352   8.5211   9.8987   9.9223  14.2001

     occupation numbers 
     1.0000   1.0000   1.0000   1.0000   0.0000   0.0000   0.0000   0.0000

          k = 0.2525-0.1515 0.2525 (   746 PWs)   bands (ev):

    -4.4141   1.4126   4.7651   5.5772   8.6904   9.8888  10.0988  13.4665

     occupation numbers 
     1.0000   1.0000   1.0000   1.0000   0.0000   0.0000   0.0000   0.0000

          k = 0.2020-0.1010 0.2020 (   741 PWs)   bands (ev):

    -4.8955   2.6524   4.9652   5.8573   8.9177   9.7516  10.1093  12.7093

     occupation numbers 
     1.0000   1.0000   1.0000   1.0003   0.0000   0.0000   0.0000   0.0000

          k = 0.1515-0.0505 0.1515 (   738 PWs)   bands (ev):

    -5.2674   3.9541   5.2654   6.1314   9.1634   9.4402   9.7958  11.9914

     occupation numbers 
     1.0000   1.0000   1.0000   1.0174   0.0000   0.0000   0.0000   0.0000

          k = 0.1010 0.0000 0.1010 (   735 PWs)   bands (ev):

    -5.5133   5.1195   5.7149   6.3111   9.1513   9.2868   9.3380  11.0786

     occupation numbers 
     1.0000   1.0000   1.0000   1.0706   0.0000   0.0000   0.0000   0.0000

          k = 0.0000 0.2020 0.0000 (   721 PWs)   bands (ev):

    -5.3324   4.7806   5.4017   5.4017   8.2730  10.4010  10.4010  10.9489

     occupation numbers 
     1.0000   1.0000   1.0000   1.0000   0.0000   0.0000   0.0000   0.0000

          k =-0.0505 0.2525-0.0505 (   733 PWs)   bands (ev):

    -5.0866   3.8117   5.0887   5.1553   8.2523  10.4393  10.9117  11.0121

     occupation numbers 
     1.0000   1.0000   1.0000   1.0000   0.0000   0.0000   0.0000   0.0000

          k =-0.1010 0.3030-0.1010 (   726 PWs)   bands (ev):

    -4.7152   2.6153   4.8213   4.8504   8.4741  10.3879  10.9526  11.1892

     occupation numbers 
     1.0000   1.0000   1.0000   1.0000   0.0000   0.0000   0.0000   0.0000

          k =-0.1515 0.3536-0.1515 (   739 PWs)   bands (ev):

    -4.2344   1.4374   4.4528   4.7054   8.5647  10.3970  11.1545  11.2830

     occupation numbers 
     1.0000   1.0000   1.0000   1.0000   0.0000   0.0000   0.0000   0.0000

          k =-0.2020 0.4041-0.2020 (   741 PWs)   bands (ev):

    -3.6862   0.3886   4.1232   4.6605   8.5470  10.2714  10.9480  12.2226

     occupation numbers 
     1.0000   1.0000   1.0000   1.0000   0.0000   0.0000   0.0000   0.0000

          k = 0.4546-0.2525 0.4546 (   738 PWs)   bands (ev):

    -3.2019  -0.3703   3.8659   4.7153   8.5618  10.1781  10.7192  13.4303

     occupation numbers 
     1.0000   1.0000   1.0000   1.0000   0.0000   0.0000   0.0000   0.0000

          k = 0.4041-0.2020 0.4041 (   745 PWs)   bands (ev):

    -3.1114  -0.4974   3.6994   4.8641   8.6616  10.1642  10.5399  14.6487

     occupation numbers 
     1.0000   1.0000   1.0000   1.0000   0.0000   0.0000   0.0000   0.0000

          k = 0.3536-0.1515 0.3536 (   737 PWs)   bands (ev):

    -3.5132   0.1061   3.6379   5.0954   8.8467  10.2360  10.4215  14.1657

     occupation numbers 
     1.0000   1.0000   1.0000   1.0000   0.0000   0.0000   0.0000   0.0000

          k = 0.3030-0.1010 0.3030 (   739 PWs)   bands (ev):

    -4.0625   1.0825   3.6968   5.3892   9.0912  10.3102  10.3548  13.1391

     occupation numbers 
     1.0000   1.0000   1.0000   1.0000   0.0000   0.0000   0.0000   0.0000

          k = 0.2525-0.0505 0.2525 (   738 PWs)   bands (ev):

    -4.5714   2.1995   3.9090   5.7106   9.3516  10.0789  10.3467  12.3646

     occupation numbers 
     1.0000   1.0000   1.0000   1.0000   0.0000   0.0000   0.0000   0.0000

          k = 0.2020-0.0000 0.2020 (   749 PWs)   bands (ev):

    -4.9802   3.2457   4.3877   5.9942   9.5188   9.7075   9.9827  12.1210

     occupation numbers 
     1.0000   1.0000   1.0000   1.0029   0.0000   0.0000   0.0000   0.0000

          k = 0.0000 0.3030 0.0000 (   733 PWs)   bands (ev):

    -4.8841   3.5260   4.7555   4.7555   7.7447  10.0910  11.5847  11.5847

     occupation numbers 
     1.0000   1.0000   1.0000   1.0000   0.0000   0.0000   0.0000   0.0000

          k =-0.0505 0.3536-0.0505 (   731 PWs)   bands (ev):

    -4.5538   2.6911   4.3987   4.4978   7.7594   9.6890  11.8749  12.0665

     occupation numbers 
     1.0000   1.0000   1.0000   1.0000   0.0000   0.0000   0.0000   0.0000

          k =-0.1010 0.4041-0.1010 (   737 PWs)   bands (ev):

    -4.1075   1.6907   3.9220   4.3369   7.9868   9.8044  11.7891  12.1769

     occupation numbers 
     1.0000   1.0000   1.0000   1.0000   0.0000   0.0000   0.0000   0.0000

          k =-0.1515 0.4546-0.1515 (   737 PWs)   bands (ev):

    -3.5740   0.7032   3.4561   4.2815   8.0736  10.5529  11.6304  12.0087

     occupation numbers 
     1.0000   1.0000   1.0000   1.0000   0.0000   0.0000   0.0000   0.0000

          k = 0.5051-0.2020 0.5051 (   736 PWs)   bands (ev):

    -3.0411  -0.1172   3.0753   4.3331   8.1323  11.3657  11.7533  11.8271

     occupation numbers 
     1.0000   1.0000   1.0000   1.0000   0.0000   0.0000   0.0000   0.0000

          k = 0.4546-0.1515 0.4546 (   735 PWs)   bands (ev):

    -2.7818  -0.4667   2.8100   4.4874   8.2760  11.3263  11.5138  13.1379

     occupation numbers 
     1.0000   1.0000   1.0000   1.0000   0.0000   0.0000   0.0000   0.0000

          k = 0.4041-0.1010 0.4041 (   737 PWs)   bands (ev):

    -3.0680  -0.0696   2.6837   4.7339   8.5268  11.2912  11.3109  14.0934

     occupation numbers 
     1.0000   1.0000   1.0000   1.0000   0.0000   0.0000   0.0000   0.0000

          k = 0.3536-0.0505 0.3536 (   736 PWs)   bands (ev):

    -3.6033   0.7430   2.7400   5.0520   8.8629  11.0709  11.2639  12.9734

     occupation numbers 
     1.0000   1.0000   1.0000   1.0000   0.0000   0.0000   0.0000   0.0000

          k = 0.3030-0.0000 0.3030 (   734 PWs)   bands (ev):

    -4.1314   1.5874   3.0986   5.4024   9.2134  10.6287  10.9688  12.2994

     occupation numbers 
     1.0000   1.0000   1.0000   1.0000   0.0000   0.0000   0.0000   0.0000

          k = 0.0000 0.4041 0.0000 (   725 PWs)   bands (ev):

    -4.2642   2.2301   4.2164   4.2164   7.3054   8.9920  12.8598  12.8598

     occupation numbers 
     1.0000   1.0000   1.0000   1.0000   0.0004   0.0000   0.0000   0.0000

          k =-0.0505 0.4546-0.0505 (   732 PWs)   bands (ev):

    -3.8547   1.4973   3.8151   4.0311   7.3819   8.7117  13.1747  13.2730

     occupation numbers 
     1.0000   1.0000   1.0000   1.0000   0.0001   0.0000   0.0000   0.0000

          k =-0.1010 0.5051-0.1010 (   730 PWs)   bands (ev):

    -3.3452   0.7005   3.2165   3.9530   7.5871   9.0895  13.1127  13.2381

     occupation numbers 
     1.0000   1.0000   1.0000   1.0000   0.0000   0.0000   0.0000   0.0000

          k = 0.5556-0.1515 0.5556 (   735 PWs)   bands (ev):

    -2.7932  -0.0444   2.6547   3.9854   7.6803  10.0845  12.9675  12.9993

     occupation numbers 
     1.0000   1.0000   1.0000   1.0000   0.0000   0.0000   0.0000   0.0000

          k = 0.5051-0.1010 0.5051 (   731 PWs)   bands (ev):

    -2.4039  -0.5079   2.2436   4.1259   7.8294  11.3613  12.7214  12.8613

     occupation numbers 
     1.0000   1.0000   1.0000   1.0000   0.0000   0.0000   0.0000   0.0000

          k = 0.4546-0.0505 0.4546 (   728 PWs)   bands (ev):

    -2.5614  -0.3139   2.0462   4.3659   8.0911  12.3973  12.4205  13.1765

     occupation numbers 
     1.0000   1.0000   1.0000   1.0000   0.0000   0.0000   0.0000   0.0000

          k = 0.4041 0.0000 0.4041 (   728 PWs)   bands (ev):

    -3.0693   0.2590   2.1646   4.6868   8.4556  11.9029  12.2357  13.1321

     occupation numbers 
     1.0000   1.0000   1.0000   1.0000   0.0000   0.0000   0.0000   0.0000

          k =-0.0000 0.5051-0.0000 (   733 PWs)   bands (ev):

    -3.4814   0.9391   3.8180   3.8180   7.0229   8.0905  14.1896  14.1896

     occupation numbers 
     1.0000   1.0000   1.0000   1.0000   0.0366   0.0000   0.0000   0.0000

          k =-0.0505 0.5556-0.0505 (   738 PWs)   bands (ev):

    -3.0009   0.2808   3.4283   3.7116   7.1649   7.9857  14.5242  14.5299

     occupation numbers 
     1.0000   1.0000   1.0000   1.0000   0.0047   0.0000   0.0000   0.0000

          k = 0.6061-0.1010 0.6061 (   733 PWs)   bands (ev):

    -2.4497  -0.3550   2.7926   3.7171   7.3278   8.6629  14.3855  14.4863

     occupation numbers 
     1.0000   1.0000   1.0000   1.0000   0.0002   0.0000   0.0000   0.0000

          k = 0.5556-0.0505 0.5556 (   733 PWs)   bands (ev):

    -1.9794  -0.8232   2.2211   3.8339   7.4703   9.8569  14.0753  14.3445

     occupation numbers 
     1.0000   1.0000   1.0000   1.0000   0.0000   0.0000   0.0000   0.0000

          k = 0.5051 0.0000 0.5051 (   730 PWs)   bands (ev):

    -2.0766  -0.7047   1.9122   4.0553   7.7233  11.2740  13.5012  14.0592

     occupation numbers 
     1.0000   1.0000   1.0000   1.0000   0.0000   0.0000   0.0000   0.0000

          k = 0.0000 0.6061 0.0000 (   745 PWs)   bands (ev):

    -2.5484  -0.3105   3.5746   3.5746   6.9354   7.4497  15.5551  15.5551

     occupation numbers 
     1.0000   1.0000   1.0000   1.0000   0.0996   0.0000   0.0000   0.0000

          k = 0.6566-0.0505 0.6566 (   736 PWs)   bands (ev):

    -2.0097  -0.9025   3.2362   3.5497   7.1099   7.5631  15.7955  15.9043

     occupation numbers 
     1.0000   1.0000   1.0000   1.0000   0.0111   0.0000   0.0000   0.0000

          k = 0.6061-0.0000 0.6061 (   736 PWs)   bands (ev):

    -1.5766  -1.2881   2.6540   3.6376   7.2378   8.5227  15.3312  15.8269

     occupation numbers 
     1.0000   1.0000   1.0000   1.0000   0.0013   0.0000   0.0000   0.0000

          k = 0.0000-0.7071 0.0000 (   740 PWs)   bands (ev):

    -1.4833  -1.4833   3.4929   3.4929   7.0704   7.0704  16.6564  16.6564

     occupation numbers 
     1.0000   1.0000   1.0000   1.0000   0.0195   0.0195   0.0000   0.0000

          k =-0.1010 0.2020 0.0000 (   738 PWs)   bands (ev):

    -5.2440   4.1411   5.0556   5.8526   8.7548   9.8577  10.2436  11.4866

     occupation numbers 
     1.0000   1.0000   1.0000   1.0003   0.0000   0.0000   0.0000   0.0000

          k =-0.1515 0.2525-0.0505 (   741 PWs)   bands (ev):

    -4.9136   3.0325   4.5795   5.6418   8.9838   9.8405  10.6543  11.4945

     occupation numbers 
     1.0000   1.0000   1.0000   1.0000   0.0000   0.0000   0.0000   0.0000

          k =-0.2020 0.3030-0.1010 (   735 PWs)   bands (ev):

    -4.4667   1.8267   4.3022   5.3553   9.0558   9.8090  10.7961  11.8016

     occupation numbers 
     1.0000   1.0000   1.0000   1.0000   0.0000   0.0000   0.0000   0.0000

          k =-0.2525 0.3536-0.1515 (   739 PWs)   bands (ev):

    -3.9333   0.7091   4.1384   5.0908   8.9770   9.7033  10.7293  12.6116

     occupation numbers 
     1.0000   1.0000   1.0000   1.0000   0.0000   0.0000   0.0000   0.0000

          k = 0.4041-0.3030 0.5051 (   740 PWs)   bands (ev):

    -3.4021  -0.1841   4.0572   4.9056   8.9014   9.5799  10.6273  13.7090

     occupation numbers 
     1.0000   1.0000   1.0000   1.0000   0.0000   0.0000   0.0000   0.0000

          k = 0.3536-0.2525 0.4546 (   734 PWs)   bands (ev):

    -3.1358  -0.5726   4.0342   4.8385   8.8743   9.5292  10.5847  14.5960

     occupation numbers 
     1.0000   1.0000   1.0000   1.0000   0.0000   0.0000   0.0000   0.0000

          k =-0.1010 0.3030 0.0000 (   733 PWs)   bands (ev):

    -4.7990   3.1029   4.4074   5.0685   8.2488  10.3114  11.0027  11.4701

     occupation numbers 
     1.0000   1.0000   1.0000   1.0000   0.0000   0.0000   0.0000   0.0000

          k =-0.1515 0.3536-0.0505 (   736 PWs)   bands (ev):

    -4.3900   2.1188   3.9306   4.8329   8.5214  10.3221  10.8271  11.8497

     occupation numbers 
     1.0000   1.0000   1.0000   1.0000   0.0000   0.0000   0.0000   0.0000

          k =-0.2020 0.4041-0.1010 (   735 PWs)   bands (ev):

    -3.8809   1.0689   3.6185   4.5843   8.6659  10.5526  10.9335  11.8984

     occupation numbers 
     1.0000   1.0000   1.0000   1.0000   0.0000   0.0000   0.0000   0.0000

          k = 0.4546-0.2525 0.5556 (   733 PWs)   bands (ev):

    -3.3309   0.1349   3.3886   4.4380   8.7141  10.2862  11.7948  12.0035

     occupation numbers 
     1.0000   1.0000   1.0000   1.0000   0.0000   0.0000   0.0000   0.0000

          k = 0.4041-0.2020 0.5051 (   732 PWs)   bands (ev):

    -2.9307  -0.4442   3.2183   4.4356   8.8114  10.0719  11.6950  13.3036

     occupation numbers 
     1.0000   1.0000   1.0000   1.0000   0.0000   0.0000   0.0000   0.0000

          k = 0.3536-0.1515 0.4546 (   734 PWs)   bands (ev):

    -3.0321  -0.3016   3.1229   4.5706   9.0001   9.9332  11.6392  13.6316

     occupation numbers 
     1.0000   1.0000   1.0000   1.0000   0.0000   0.0000   0.0000   0.0000

          k = 0.3030-0.1010 0.4041 (   740 PWs)   bands (ev):

    -3.5219   0.4424   3.1336   4.8149   9.2679   9.8625  11.6080  12.4300

     occupation numbers 
     1.0000   1.0000   1.0000   1.0000   0.0000   0.0000   0.0000   0.0000

          k = 0.2525-0.0505 0.3536 (   741 PWs)   bands (ev):

    -4.0684   1.4145   3.2997   5.1279   9.5473   9.7805  11.4213  11.6339

     occupation numbers 
     1.0000   1.0000   1.0000   1.0000   0.0000   0.0000   0.0000   0.0000

          k = 0.2020-0.0000 0.3030 (   743 PWs)   bands (ev):

    -4.5458   2.3548   3.7385   5.4426   9.3782   9.8452  11.1808  11.2350

     occupation numbers 
     1.0000   1.0000   1.0000   1.0000   0.0000   0.0000   0.0000   0.0000

          k =-0.1010 0.4041-0.0000 (   730 PWs)   bands (ev):

    -4.1846   2.0015   3.8738   4.3315   7.8194   9.3262  12.0150  12.7919

     occupation numbers 
     1.0000   1.0000   1.0000   1.0000   0.0000   0.0000   0.0000   0.0000

          k =-0.1515 0.4546-0.0505 (   743 PWs)   bands (ev):

    -3.7063   1.1732   3.3733   4.1030   8.1155   9.4910  11.8163  13.1518

     occupation numbers 
     1.0000   1.0000   1.0000   1.0000   0.0000   0.0000   0.0000   0.0000

          k = 0.5051-0.2020 0.6061 (   738 PWs)   bands (ev):

    -3.1583   0.3331   2.9300   3.9804   8.2449  10.3228  11.5566  13.1496

     occupation numbers 
     1.0000   1.0000   1.0000   1.0000   0.0000   0.0000   0.0000   0.0000

          k = 0.4546-0.1515 0.5556 (   729 PWs)   bands (ev):

    -2.6698  -0.3228   2.5811   4.0070   8.3603  11.1409  11.7065  13.0428

     occupation numbers 
     1.0000   1.0000   1.0000   1.0000   0.0000   0.0000   0.0000   0.0000

          k = 0.4041-0.1010 0.5051 (   731 PWs)   bands (ev):

    -2.5969  -0.4076   2.3669   4.1675   8.5686  11.0109  12.8202  13.1096

     occupation numbers 
     1.0000   1.0000   1.0000   1.0000   0.0000   0.0000   0.0000   0.0000

          k = 0.3536-0.0505 0.4546 (   734 PWs)   bands (ev):

    -3.0219   0.1441   2.3387   4.4374   8.8792  10.8339  12.3497  12.7727

     occupation numbers 
     1.0000   1.0000   1.0000   1.0000   0.0000   0.0000   0.0000   0.0000

          k = 0.3030-0.0000 0.4041 (   741 PWs)   bands (ev):

    -3.5697   0.8577   2.6056   4.7798   9.2590  10.4416  11.5838  12.3556

     occupation numbers 
     1.0000   1.0000   1.0000   1.0000   0.0000   0.0000   0.0000   0.0000

          k =-0.1010 0.5051 0.0000 (   739 PWs)   bands (ev):

    -3.4108   0.8441   3.4921   3.7687   7.5346   8.4772  13.1800  14.1637

     occupation numbers 
     1.0000   1.0000   1.0000   1.0000   0.0000   0.0000   0.0000   0.0000

          k = 0.5556-0.1515 0.6566 (   740 PWs)   bands (ev):

    -2.8787   0.1618   2.9498   3.6171   7.8290   8.8979  12.9384  14.5167

     occupation numbers 
     1.0000   1.0000   1.0000   1.0000   0.0000   0.0000   0.0000   0.0000

          k = 0.5051-0.1010 0.6061 (   735 PWs)   bands (ev):

    -2.3420  -0.4444   2.3986   3.6449   7.9637   9.9779  12.6638  14.4707

     occupation numbers 
     1.0000   1.0000   1.0000   1.0000   0.0000   0.0000   0.0000   0.0000

          k = 0.4546-0.0505 0.5556 (   732 PWs)   bands (ev):

    -2.1241  -0.6624   2.0292   3.8071   8.1656  11.3005  12.4452  13.7599

     occupation numbers 
     1.0000   1.0000   1.0000   1.0000   0.0000   0.0000   0.0000   0.0000

          k = 0.4041 0.0000 0.5051 (   728 PWs)   bands (ev):

    -2.4884  -0.2897   1.9647   4.0815   8.4781  11.8076  12.6355  12.9957

     occupation numbers 
     1.0000   1.0000   1.0000   1.0000   0.0000   0.0000   0.0000   0.0000

          k = 0.6061-0.1010 0.7071 (   739 PWs)   bands (ev):

    -2.4928  -0.3258   3.2801   3.4091   7.4331   7.8835  14.4176  15.5533

     occupation numbers 
     1.0000   1.0000   1.0000   1.0000   0.0000   0.0000   0.0000   0.0000

          k = 0.5556-0.0505 0.6566 (   737 PWs)   bands (ev):

    -1.9373  -0.8839   2.7210   3.3871   7.6830   8.5996  14.1568  15.4358

     occupation numbers 
     1.0000   1.0000   1.0000   1.0000   0.0000   0.0000   0.0000   0.0000

          k = 0.5051 0.0000 0.6061 (   734 PWs)   bands (ev):

    -1.7053  -1.0638   2.2044   3.5390   7.8663   9.8648  13.7310  14.0980

     occupation numbers 
     1.0000   1.0000   1.0000   1.0000   0.0000   0.0000   0.0000   0.0000

          k =-0.1010-0.7071 0.0000 (   732 PWs)   bands (ev):

    -1.4534  -1.4534   3.2492   3.2492   7.5419   7.5419  15.7060  15.7061

     occupation numbers 
     1.0000   1.0000   1.0000   1.0000   0.0000   0.0000   0.0000   0.0000

          k =-0.2020 0.4041 0.0000 (   735 PWs)   bands (ev):

    -3.9492   1.4735   3.2185   4.5745   8.9866  10.2433  10.5828  12.6061

     occupation numbers 
     1.0000   1.0000   1.0000   1.0000   0.0000   0.0000   0.0000   0.0000

          k = 0.4546-0.2525 0.6566 (   737 PWs)   bands (ev):

    -3.4201   0.6702   2.8191   4.2587   9.3345  10.2131  10.8120  12.9882

     occupation numbers 
     1.0000   1.0000   1.0000   1.0000   0.0000   0.0000   0.0000   0.0000

          k = 0.4041-0.2020 0.6061 (   732 PWs)   bands (ev):

    -2.8841  -0.0925   2.6435   4.0223   9.4718   9.9041  11.9147  13.0607

     occupation numbers 
     1.0000   1.0000   1.0000   1.0000   0.0000   0.0000   0.0000   0.0000

          k = 0.3536-0.1515 0.5556 (   730 PWs)   bands (ev):

    -2.6066  -0.4545   2.5957   3.9356   9.5901   9.7043  13.0516  13.1218

     occupation numbers 
     1.0000   1.0000   1.0000   1.0000   0.0000   0.0000   0.0000   0.0000

          k = 0.5051-0.2020 0.7071 (   734 PWs)   bands (ev):

    -3.2050   0.5654   2.8711   3.7484   8.7141   9.4840  11.5225  14.0857

     occupation numbers 
     1.0000   1.0000   1.0000   1.0000   0.0000   0.0000   0.0000   0.0000

          k = 0.4546-0.1515 0.6566 (   739 PWs)   bands (ev):

    -2.6545  -0.0823   2.4952   3.4875   9.0456  10.2212  11.2324  14.4825

     occupation numbers 
     1.0000   1.0000   1.0000   1.0000   0.0000   0.0000   0.0000   0.0000

          k = 0.4041-0.1010 0.6061 (   734 PWs)   bands (ev):

    -2.2411  -0.5449   2.2425   3.4348   9.2204  10.7739  11.6737  13.4263

     occupation numbers 
     1.0000   1.0000   1.0000   1.0000   0.0000   0.0000   0.0000   0.0000

          k = 0.3536-0.0505 0.5556 (   730 PWs)   bands (ev):

    -2.3759  -0.3921   2.1522   3.5818   9.4735  10.5941  11.9362  13.1786

     occupation numbers 
     1.0000   1.0000   1.0000   1.0000   0.0000   0.0000   0.0000   0.0000

          k = 0.3030-0.0000 0.5051 (   736 PWs)   bands (ev):

    -2.8844   0.1567   2.3131   3.8800   9.8140  10.2031  10.9796  13.9431

     occupation numbers 
     1.0000   1.0000   1.0000   1.0000   0.0000   0.0000   0.0000   0.0000

          k = 0.5051-0.1010 0.7071 (   735 PWs)   bands (ev):

    -2.3369  -0.3952   2.7239   3.1407   8.6029   8.9671  12.6186  15.1832

     occupation numbers 
     1.0000   1.0000   1.0000   1.0000   0.0000   0.0000   0.0000   0.0000

          k = 0.4546-0.0505 0.6566 (   731 PWs)   bands (ev):

    -1.8346  -0.8707   2.3374   3.0454   8.8922   9.9989  12.3215  13.5975

     occupation numbers 
     1.0000   1.0000   1.0000   1.0000   0.0000   0.0000   0.0000   0.0000

          k = 0.4041 0.0000 0.6061 (   733 PWs)   bands (ev):

    -1.8864  -0.8015   2.0656   3.2357   9.1341  11.2490  12.1198  12.2425

     occupation numbers 
     1.0000   1.0000   1.0000   1.0000   0.0000   0.0000   0.0000   0.0000

          k =-0.2020-0.7071-0.0000 (   738 PWs)   bands (ev):

    -1.3822  -1.3822   2.8040   2.8040   8.6800   8.6800  13.8542  13.8542

     occupation numbers 
     1.0000   1.0000   1.0000   1.0000   0.0000   0.0000   0.0000   0.0000

          k = 0.4041-0.1010 0.7071 (   732 PWs)   bands (ev):

    -2.1154  -0.5576   2.2641   3.0595  10.0936  10.2618  11.0120  13.3378

     occupation numbers 
     1.0000   1.0000   1.0000   1.0000   0.0000   0.0000   0.0000   0.0000

          k = 0.3536-0.0505 0.6566 (   734 PWs)   bands (ev):

    -1.7829  -0.8704   2.2065   2.8871  10.2321  10.5975  11.5843  12.0329

     occupation numbers 
     1.0000   1.0000   1.0000   1.0000   0.0000   0.0000   0.0000   0.0000

          k =-0.3030-0.7071-0.0000 (   734 PWs)   bands (ev):

    -1.3204  -1.3204   2.5040   2.5040  10.1346  10.1346  12.0406  12.0406

     occupation numbers 
     1.0000   1.0000   1.0000   1.0000   0.0000   0.0000   0.0000   0.0000

     the Fermi energy is     6.7675 ev

     WARNING: integrated charge=     8.00298544, expected=     8.00000000

!    total energy              =     -22.83713469 Ry
     estimated scf accuracy    <          2.4E-11 Ry
     smearing contrib. (-TS)   =       0.00006899 Ry
     internal energy E=F+TS    =     -22.83720368 Ry

     The total energy is F=E-TS. E is the sum of the following terms:
     one-electron contribution =       5.31142511 Ry
     hartree contribution      =       1.08468413 Ry
     xc contribution           =     -12.33355427 Ry
     ewald contribution        =     -16.89975865 Ry

     convergence has been achieved in   9 iterations

     Forces acting on atoms (cartesian axes, Ry/au):

     atom    1 type  1   force =    -0.00000000   -0.00000000    0.00000000
     atom    2 type  1   force =     0.00000000    0.00000000   -0.00000000
     The non-local contrib.  to forces
     atom    1 type  1   force =     0.00000000   -0.00000000    0.00000000
     atom    2 type  1   force =    -0.00000000    0.00000000   -0.00000000
     The ionic contribution  to forces
     atom    1 type  1   force =     0.00000000   -0.00000000    0.00000000
     atom    2 type  1   force =    -0.00000000   -0.00000000   -0.00000000
     The local contribution  to forces
     atom    1 type  1   force =     0.00000000   -0.00000000   -0.00000000
     atom    2 type  1   force =    -0.00000000   -0.00000000   -0.00000000
     The core correction contribution to forces
     atom    1 type  1   force =    -0.00000000    0.00000000    0.00000000
     atom    2 type  1   force =     0.00000000    0.00000000    0.00000000
     The Hubbard contrib.    to forces
     atom    1 type  1   force =     0.00000000    0.00000000    0.00000000
     atom    2 type  1   force =     0.00000000    0.00000000    0.00000000
     The SCF correction term to forces
     atom    1 type  1   force =    -0.00000000    0.00000000    0.00000000
     atom    2 type  1   force =     0.00000000    0.00000000    0.00000000

     Total force =     0.000000     Total SCF correction =     0.000000


     Computing stress (Cartesian axis) and pressure

          total   stress  (Ry/bohr**3)                   (kbar)     P=       39.34
   0.00026740   0.00000000   0.00000000           39.34        0.00        0.00
   0.00000000   0.00026740  -0.00000000            0.00       39.34       -0.00
   0.00000000  -0.00000000   0.00026740            0.00       -0.00       39.34

     kinetic stress (kbar)   2268.58     -0.00      0.00
                               -0.00   2268.58      0.00
                                0.00      0.00   2268.58

     local   stress (kbar)     76.27      0.00      0.00
                                0.00     76.27      0.00
                                0.00      0.00     76.27

     nonloc. stress (kbar)   1640.35     -0.00     -0.00
                               -0.00   1640.35     -0.00
                               -0.00     -0.00   1640.35

     hartree stress (kbar)    200.48      0.00     -0.00
                                0.00    200.48     -0.00
                               -0.00     -0.00    200.48

     exc-cor stress (kbar)   2997.06      0.00     -0.00
                                0.00   2997.06      0.00
                               -0.00      0.00   2997.06

     corecor stress (kbar)  -4019.86     -0.00     -0.00
                               -0.00  -4019.86     -0.00
                               -0.00     -0.00  -4019.86

     ewald   stress (kbar)  -3123.54      0.00      0.00
                                0.00  -3123.54      0.00
                                0.00      0.00  -3123.54

     hubbard stress (kbar)      0.00      0.00      0.00
                                0.00      0.00      0.00
                                0.00      0.00      0.00

     DFT-D   stress (kbar)      0.00      0.00      0.00
                                0.00      0.00      0.00
                                0.00      0.00      0.00

     XDM     stress (kbar)      0.00      0.00      0.00
                                0.00      0.00      0.00
                                0.00      0.00      0.00

     dft-nl  stress (kbar)      0.00      0.00      0.00
                                0.00      0.00      0.00
                                0.00      0.00      0.00

     TS-vdW  stress (kbar)      0.00      0.00      0.00
                                0.00      0.00      0.00
                                0.00      0.00      0.00

     MDB     stress (kbar)      0.00      0.00      0.00
                                0.00      0.00      0.00
                                0.00      0.00      0.00

     3D-RISM stress (kbar)      0.00      0.00      0.00
                                0.00      0.00      0.00
                                0.00      0.00      0.00


     Writing all to output data dir ./out/silicon.save/ :
     XML data file, charge density, pseudopotentials, collected wavefunctions

     init_run     :      0.11s CPU      0.12s WALL (       1 calls)
     electrons    :      2.47s CPU      2.58s WALL (       1 calls)
     forces       :      0.03s CPU      0.03s WALL (       1 calls)
     stress       :      0.11s CPU      0.12s WALL (       1 calls)

     Called by init_run:
     wfcinit      :      0.06s CPU      0.07s WALL (       1 calls)
     wfcinit:atom :      0.00s CPU      0.00s WALL (     104 calls)
     wfcinit:wfcr :      0.06s CPU      0.06s WALL (     104 calls)
     potinit      :      0.00s CPU      0.00s WALL (       1 calls)
     hinit0       :      0.03s CPU      0.03s WALL (       1 calls)

     Called by electrons:
     c_bands      :      1.94s CPU      2.02s WALL (      10 calls)
     sum_band     :      0.47s CPU      0.49s WALL (      10 calls)
     v_of_rho     :      0.02s CPU      0.02s WALL (      10 calls)
     v_h          :      0.00s CPU      0.00s WALL (      10 calls)
     v_xc         :      0.02s CPU      0.02s WALL (      12 calls)
     newd         :      0.05s CPU      0.05s WALL (      10 calls)
     mix_rho      :      0.00s CPU      0.00s WALL (      10 calls)

     Called by c_bands:
     init_us_2    :      0.05s CPU      0.05s WALL (    2392 calls)
     cegterg      :      1.80s CPU      1.88s WALL (    1040 calls)

     Called by sum_band:
     sum_band:wei :      0.01s CPU      0.01s WALL (      10 calls)
     sum_band:loo :      0.42s CPU      0.43s WALL (      10 calls)
     sum_band:buf :      0.00s CPU      0.00s WALL (    1040 calls)
     sum_band:ini :      0.02s CPU      0.02s WALL (    1040 calls)
     sum_band:cal :      0.03s CPU      0.03s WALL (    1040 calls)
     sum_band:bec :      0.00s CPU      0.00s WALL (    1040 calls)
     addusdens    :      0.04s CPU      0.04s WALL (      10 calls)
                                        0.00s GPU  (      10 calls)
     addusd:skk   :      0.00s CPU      0.00s WALL (      10 calls)
                                        0.00s GPU  (      10 calls)

     Called by *egterg:
     cdiaghg      :      0.17s CPU      0.17s WALL (    3709 calls)
     cegterg:over :      0.10s CPU      0.10s WALL (    2773 calls)
     cegterg:upda :      0.02s CPU      0.03s WALL (    2773 calls)
     cegterg:last :      0.03s CPU      0.03s WALL (    1989 calls)
     h_psi        :      1.43s CPU      1.49s WALL (    3917 calls)
     s_psi        :      0.05s CPU      0.05s WALL (    3917 calls)
     g_psi        :      0.00s CPU      0.00s WALL (    2773 calls)

     Called by h_psi:
     h_psi:calbec :      0.11s CPU      0.11s WALL (    3917 calls)
     vloc_psi     :      1.26s CPU      1.31s WALL (    3917 calls)
                                        0.00s GPU  (    3917 calls)
     add_vuspsi   :      0.05s CPU      0.06s WALL (    3917 calls)

     General routines
     calbec       :      0.19s CPU      0.20s WALL (    6725 calls)
     fft          :      0.01s CPU      0.01s WALL (     154 calls)
     ffts         :      0.00s CPU      0.00s WALL (      20 calls)
     fftw         :      1.43s CPU      1.48s WALL (   52360 calls)
     interpolate  :      0.00s CPU      0.00s WALL (      10 calls)

     Parallel routines

     PWSCF        :      2.80s CPU      2.98s WALL


   This run was terminated on:  16:17:54   7May2026            

=------------------------------------------------------------------------------=
   JOB DONE.
=------------------------------------------------------------------------------=
